/*--------------------------------*- C++ -*----------------------------------*\
| =========                 |                                                 |
| \\      /  F ield         | OpenFOAM: The Open Source CFD Toolbox           |
|  \\    /   O peration     | Version:  v1912                                 |
|   \\  /    A nd           | Website:  www.openfoam.com                      |
|    \\/     M anipulation  |                                                 |
\*---------------------------------------------------------------------------*/
FoamFile
{
    version     2.0;
    format      ascii;
    class       surfaceScalarField;
    location    "0.006";
    object      phi;
}
// * * * * * * * * * * * * * * * * * * * * * * * * * * * * * * * * * * * * * //

dimensions      [1 0 -1 0 0 0 0];
oriented        oriented;


internalField   nonuniform List<scalar> 
999
(
-3.41061e-13
9.09495e-13
1.3074e-12
5.68434e-13
1.42109e-12
3.41061e-13
5.68434e-13
5.68434e-13
2.84217e-13
-2.84217e-13
-4.54747e-13
-6.25278e-13
-1.02318e-12
-1.3074e-12
-1.47793e-12
-1.47793e-12
-1.7053e-12
-9.66338e-13
-2.10321e-12
-1.47793e-12
-2.67164e-12
-2.72848e-12
-2.33058e-12
-1.87583e-12
-2.10321e-12
-2.16005e-12
-2.50111e-12
-2.33058e-12
-2.21689e-12
-2.33058e-12
-2.44427e-12
-2.6148e-12
-2.6148e-12
-2.27374e-12
-2.84217e-12
-2.50111e-12
-2.84217e-12
-2.10321e-12
-1.76215e-12
-1.98952e-12
-1.47793e-12
-1.3074e-12
-1.08002e-12
-1.02318e-12
-2.84217e-13
-1.47793e-12
-1.87583e-12
-1.76215e-12
-2.6148e-12
-3.0127e-12
-3.06954e-12
-2.95586e-12
-2.95586e-12
-3.52429e-12
-3.29692e-12
-3.06954e-12
-3.06954e-12
-3.06954e-12
-2.27374e-12
-2.38742e-12
-2.6148e-12
-2.84217e-12
-2.95586e-12
-2.95586e-12
-3.86535e-12
-3.63798e-12
-4.26326e-12
-5.34328e-12
-5.05906e-12
-4.26326e-12
-5.11591e-12
-4.77485e-12
-4.03588e-12
-4.26326e-12
-3.86535e-12
-3.0127e-12
-3.06954e-12
-3.46745e-12
-3.46745e-12
-3.75167e-12
-3.52429e-12
-3.24007e-12
-2.78533e-12
-3.24007e-12
-3.0127e-12
-3.06954e-12
-3.29692e-12
-2.72848e-12
-2.84217e-12
-3.12639e-12
-3.52429e-12
-3.69482e-12
-3.58114e-12
-3.86535e-12
-3.97904e-12
-3.9222e-12
-3.58114e-12
-3.12639e-12
-2.89901e-12
-2.44427e-12
-1.53477e-12
-1.81899e-12
-1.81899e-12
-1.76215e-12
-1.93268e-12
-2.16005e-12
-1.98952e-12
-2.50111e-12
-2.04636e-12
-2.16005e-12
-2.38742e-12
-2.55795e-12
-2.72848e-12
-2.78533e-12
-2.84217e-12
-3.06954e-12
-3.69482e-12
-4.3201e-12
-4.88853e-12
-4.77485e-12
-4.49063e-12
-4.14957e-12
-4.77485e-12
-4.83169e-12
-3.86535e-12
-4.3201e-12
-3.35376e-12
-3.97904e-12
-3.75167e-12
-4.3201e-12
-3.80851e-12
-3.75167e-12
-3.9222e-12
-3.52429e-12
-3.52429e-12
-3.80851e-12
-3.46745e-12
-3.41061e-12
-3.97904e-12
-4.09273e-12
-4.3201e-12
-5.05906e-12
-5.40012e-12
-4.83169e-12
-4.37694e-12
-4.49063e-12
-4.03588e-12
-3.63798e-12
-3.9222e-12
-3.41061e-12
-3.46745e-12
-3.9222e-12
-3.80851e-12
-3.75167e-12
-4.43379e-12
-4.66116e-12
-5.11591e-12
-4.77485e-12
-5.28644e-12
-5.28644e-12
-6.30962e-12
-6.76437e-12
-6.48015e-12
-6.76437e-12
-7.16227e-12
-7.67386e-12
-7.67386e-12
-7.16227e-12
-7.44649e-12
-7.56017e-12
-7.04858e-12
-7.44649e-12
-7.90124e-12
-8.18545e-12
-7.61702e-12
-8.35598e-12
-8.52651e-12
-9.0381e-12
-9.15179e-12
-9.20863e-12
-9.15179e-12
-9.60654e-12
-1.01181e-11
-1.06297e-11
-1.0175e-11
-9.37916e-12
-9.32232e-12
-8.75389e-12
-7.7307e-12
-5.96856e-12
-3.24007e-12
1.36424e-12
1.01181e-11
2.50111e-11
5.10454e-11
9.5838e-11
1.73316e-10
3.07352e-10
5.38364e-10
9.34278e-10
1.60958e-09
2.75662e-09
4.69379e-09
7.94904e-09
1.33952e-08
2.24611e-08
3.74766e-08
6.2223e-08
1.02801e-07
1.69003e-07
2.76454e-07
4.49953e-07
7.28629e-07
1.17388e-06
1.88146e-06
2.99987e-06
4.75799e-06
7.50649e-06
1.17793e-05
1.83844e-05
2.85366e-05
4.40509e-05
6.76211e-05
0.000103219
0.000156662
0.000236409
0.000354682
0.000529003
0.000784325
0.00115591
0.00169321
0.00246508
0.00356659
0.00512796
0.00732616
0.0103996
0.0146666
0.0205487
0.0285989
0.0395355
0.0542832
0.07402
0.100231
0.13477
0.179921
0.238475
0.313789
0.409862
0.531391
0.683818
0.873362
1.10702
1.39256
1.73842
2.15367
2.64784
3.23075
3.91232
4.70233
5.61019
6.64467
7.8137
9.12412
10.5815
12.1901
13.9526
15.8703
17.9428
20.1685
22.5444
25.0662
27.7288
30.5259
33.4509
36.4963
39.6546
42.9178
46.2781
49.7276
53.2587
56.8638
60.5359
64.268
68.0536
71.8867
75.7614
79.6725
83.6149
87.5839
91.5754
95.5854
99.6102
103.647
107.691
111.742
115.795
119.849
123.901
127.95
131.994
136.03
140.058
144.076
148.082
152.076
156.056
160.022
163.971
167.904
171.82
175.717
179.596
183.455
187.293
191.111
194.908
198.683
202.435
206.165
209.871
213.555
217.214
220.849
224.46
228.046
231.607
235.143
238.653
242.138
245.597
249.03
252.438
255.819
259.173
262.502
265.804
269.079
272.328
275.55
278.745
281.914
285.056
288.171
291.26
294.322
297.357
300.365
303.346
306.301
309.229
312.131
315.006
317.854
320.676
323.472
326.241
328.983
331.7
334.39
337.054
339.693
342.305
344.891
347.451
349.986
352.495
354.979
357.437
359.869
362.276
364.659
367.015
369.347
371.654
373.937
376.194
378.427
380.635
382.819
384.978
387.114
389.225
391.312
393.375
395.415
397.43
399.423
401.391
403.337
405.258
407.158
409.031
410.889
412.711
414.529
416.3
418.079
419.801
421.534
423.219
424.894
426.555
428.162
429.801
431.354
432.945
434.475
435.995
437.508
438.973
440.44
441.879
443.289
444.692
446.066
447.418
448.758
450.071
451.364
452.641
453.895
455.129
456.346
457.542
458.717
459.875
461.013
462.131
463.231
464.312
465.374
466.417
467.442
468.448
469.435
470.404
471.356
472.289
473.203
474.101
474.98
475.841
476.685
477.511
478.32
479.112
479.886
480.643
481.384
482.107
482.813
483.502
484.175
484.832
485.471
486.095
486.701
487.292
487.867
488.425
488.968
489.494
490.005
490.5
490.98
491.444
491.892
492.325
492.743
493.146
493.533
493.906
494.263
494.606
494.934
495.248
495.547
495.831
496.102
496.358
496.601
496.83
497.045
497.247
497.436
497.612
497.775
497.927
498.066
498.193
498.309
498.415
498.509
498.594
498.67
498.736
498.794
498.844
498.887
498.924
498.954
498.979
498.999
499.015
499.027
499.036
499.042
499.046
499.048
499.049
499.049
499.048
499.046
499.044
499.041
499.038
499.035
499.032
499.029
499.026
499.023
499.02
499.017
499.013
499.01
499.007
499.003
499
498.996
498.993
498.989
498.986
498.982
498.978
498.974
498.97
498.966
498.962
498.958
498.954
498.95
498.946
498.941
498.937
498.933
498.928
498.924
498.919
498.914
498.909
498.905
498.9
498.895
498.89
498.884
498.879
498.874
498.868
498.863
498.857
498.851
498.846
498.84
498.834
498.828
498.821
498.815
498.809
498.802
498.795
498.788
498.781
498.774
498.767
498.76
498.752
498.745
498.737
498.729
498.721
498.712
498.704
498.695
498.686
498.677
498.668
498.659
498.649
498.639
498.629
498.619
498.608
498.598
498.587
498.575
498.564
498.552
498.54
498.527
498.514
498.501
498.488
498.474
498.459
498.445
498.43
498.414
498.398
498.382
498.365
498.348
498.33
498.311
498.292
498.272
498.252
498.231
498.209
498.187
498.164
498.139
498.114
498.087
498.06
498.033
498.004
497.972
497.94
497.907
497.873
497.837
497.799
497.759
497.717
497.673
497.627
497.578
497.527
497.473
497.415
497.354
497.289
497.22
497.146
497.067
496.983
496.893
496.795
496.688
496.57
496.444
496.316
496.197
496.096
496.01
495.919
495.781
495.524
495.053
494.25
492.98
491.106
488.493
485.023
480.606
475.192
468.773
461.388
453.124
444.112
434.515
424.521
414.328
404.137
394.134
384.488
375.339
366.799
358.945
351.826
345.461
339.844
334.949
330.735
327.151
324.135
321.627
319.564
317.884
316.532
315.453
314.602
313.936
313.421
313.027
312.727
312.501
312.332
312.206
312.114
312.046
311.996
311.96
311.933
311.913
311.899
311.887
311.879
311.872
311.867
311.862
311.858
311.855
311.852
311.85
311.847
311.845
311.844
311.842
311.841
311.839
311.838
311.837
311.836
311.835
311.834
311.833
311.832
311.832
311.831
311.83
311.83
311.829
311.829
311.828
311.828
311.828
311.827
311.827
311.826
311.826
311.825
311.825
311.824
311.824
311.823
311.823
311.822
311.822
311.821
311.821
311.82
311.82
311.82
311.819
311.819
311.818
311.818
311.817
311.817
311.816
311.815
311.815
311.814
311.813
311.813
311.812
311.811
311.811
311.81
311.81
311.809
311.809
311.808
311.808
311.807
311.806
311.806
311.805
311.804
311.803
311.802
311.801
311.801
311.8
311.799
311.799
311.798
311.798
311.797
311.797
311.796
311.795
311.794
311.793
311.792
311.791
311.79
311.789
311.788
311.786
311.785
311.784
311.783
311.782
311.781
311.781
311.78
311.78
311.779
311.777
311.775
311.772
311.768
311.764
311.757
311.749
311.734
311.71
311.666
311.605
311.469
311.293
310.966
310.333
309.106
305.976
299.107
282.831
246.503
182.407
107.828
48.5738
16.7251
4.71695
1.21145
0.302618
0.0751497
0.0186453
0.00462579
0.00114765
0.000284735
7.06436e-05
1.75269e-05
4.34849e-06
1.07888e-06
2.67675e-07
6.6412e-08
1.64778e-08
4.08885e-09
1.01506e-09
2.52477e-10
6.32241e-11
1.62714e-11
4.5759e-12
1.79057e-12
1.08713e-12
1.00187e-12
9.30811e-13
8.88178e-13
7.88702e-13
8.10019e-13
7.67386e-13
6.6791e-13
7.74492e-13
6.96332e-13
8.02913e-13
7.53175e-13
7.67386e-13
8.45546e-13
9.30811e-13
9.73444e-13
9.37916e-13
9.45022e-13
8.88178e-13
7.60281e-13
6.6791e-13
6.82121e-13
6.53699e-13
6.03961e-13
4.54747e-13
3.97904e-13
4.76064e-13
5.32907e-13
5.32907e-13
5.61329e-13
6.18172e-13
5.8975e-13
6.96332e-13
6.96332e-13
7.95808e-13
8.81073e-13
8.10019e-13
8.73968e-13
8.81073e-13
9.80549e-13
9.80549e-13
1.01608e-12
1.01608e-12
1.02318e-12
1.0445e-12
1.06581e-12
1.03739e-12
9.9476e-13
9.23706e-13
1.01608e-12
9.30811e-13
9.59233e-13
1.07292e-12
1.05871e-12
9.73444e-13
8.66862e-13
9.45022e-13
8.59757e-13
8.17124e-13
8.02913e-13
8.31335e-13
7.81597e-13
8.3844e-13
7.74492e-13
7.81597e-13
6.6791e-13
5.96856e-13
6.03961e-13
6.39488e-13
6.25278e-13
6.32383e-13
6.39488e-13
5.82645e-13
4.9738e-13
5.47118e-13
5.32907e-13
6.6791e-13
7.74492e-13
8.02913e-13
8.3844e-13
8.2423e-13
7.81597e-13
7.10543e-13
7.31859e-13
6.6791e-13
6.32383e-13
5.54223e-13
5.7554e-13
4.90274e-13
4.40536e-13
4.54747e-13
4.26326e-13
4.61853e-13
4.47642e-13
4.40536e-13
5.04485e-13
5.7554e-13
5.96856e-13
6.25278e-13
5.7554e-13
6.75016e-13
7.81597e-13
7.53175e-13
7.67386e-13
9.09495e-13
9.02389e-13
9.166e-13
8.31335e-13
8.95284e-13
8.73968e-13
8.59757e-13
8.2423e-13
7.24754e-13
6.82121e-13
5.96856e-13
5.54223e-13
5.40012e-13
6.39488e-13
6.32383e-13
5.47118e-13
6.53699e-13
6.32383e-13
6.46594e-13
5.8975e-13
6.89226e-13
6.6791e-13
7.10543e-13
7.10543e-13
6.6791e-13
6.75016e-13
7.31859e-13
7.24754e-13
7.31859e-13
7.38964e-13
7.67386e-13
7.03437e-13
7.31859e-13
6.82121e-13
6.82121e-13
6.32383e-13
6.6791e-13
6.60805e-13
6.18172e-13
)
;

boundaryField
{
    sides
    {
        type            calculated;
        value           nonuniform List<scalar> 2(6.18456e-13 3.49246e-13);
    }
    empty
    {
        type            empty;
        value           nonuniform 0();
    }
}


// ************************************************************************* //
