/*--------------------------------*- C++ -*----------------------------------*\
| =========                 |                                                 |
| \\      /  F ield         | OpenFOAM: The Open Source CFD Toolbox           |
|  \\    /   O peration     | Version:  v1912                                 |
|   \\  /    A nd           | Website:  www.openfoam.com                      |
|    \\/     M anipulation  |                                                 |
\*---------------------------------------------------------------------------*/
FoamFile
{
    version     2.0;
    format      ascii;
    class       volScalarField;
    location    "1";
    object      T;
}
// * * * * * * * * * * * * * * * * * * * * * * * * * * * * * * * * * * * * * //

dimensions      [0 0 0 1 0 0 0];


internalField   nonuniform List<scalar> 
1000
(
1.56373e-122
-5.56993e-122
1.58215e-121
-4.60298e-121
1.33423e-120
-3.86594e-120
1.11928e-119
-3.23815e-119
9.36121e-119
-2.70421e-118
7.80587e-118
-2.2515e-117
6.48924e-117
-1.86889e-116
5.37822e-116
-1.54654e-115
4.44371e-115
-1.27583e-114
3.66019e-114
-1.04924e-113
3.00539e-113
-8.60173e-113
2.45995e-112
-7.02945e-112
2.0071e-111
-5.72623e-111
1.63237e-110
-4.64959e-110
1.3233e-109
-3.76313e-109
1.06926e-108
-3.0357e-108
8.61145e-108
-2.4408e-107
6.91238e-107
-1.95595e-106
5.52998e-106
-1.56215e-105
4.40913e-105
-1.24341e-104
3.5035e-104
-9.86319e-104
2.77433e-103
-7.79691e-103
2.18932e-102
-6.14208e-102
1.72163e-101
-4.82151e-101
1.34909e-100
-3.77147e-100
1.0534e-99
-2.93959e-99
8.19573e-99
-2.28295e-98
6.35343e-98
-1.76654e-97
4.90728e-97
-1.36194e-96
3.77634e-96
-1.04612e-95
2.89525e-95
-8.00538e-95
2.21141e-94
-6.10301e-94
1.6827e-93
-4.63503e-93
1.2755e-92
-3.50664e-92
9.6312e-92
-2.64269e-91
7.24414e-91
-1.98381e-90
5.42732e-90
-1.48333e-89
4.05004e-89
-1.1047e-88
3.01019e-88
-8.19413e-88
2.22829e-87
-6.05335e-87
1.64276e-86
-4.45354e-86
1.20611e-85
-3.263e-85
8.81845e-85
-2.38074e-84
6.42054e-84
-1.7297e-83
4.65487e-83
-1.25135e-82
3.36033e-82
-9.01397e-82
2.41534e-81
-6.46494e-81
1.72852e-80
-4.61642e-80
1.23156e-79
-3.28185e-79
8.73569e-79
-2.32266e-78
6.16857e-78
-1.6364e-77
4.33607e-77
-1.14764e-76
3.03397e-76
-8.01151e-76
2.11306e-75
-5.5667e-75
1.46478e-74
-3.84976e-74
1.01059e-73
-2.64972e-73
6.93907e-73
-1.815e-72
4.74159e-72
-1.2372e-71
3.22421e-71
-8.39207e-71
2.1816e-70
-5.66422e-70
1.46879e-69
-3.80391e-69
9.83899e-69
-2.54165e-68
6.5573e-68
-1.68956e-67
4.3477e-67
-1.11732e-66
2.86767e-66
-7.35034e-66
1.88152e-65
-4.80987e-65
1.22793e-64
-3.13062e-64
7.97074e-64
-2.02663e-63
5.14582e-63
-1.30478e-62
3.30383e-62
-8.35396e-62
2.1094e-61
-5.31879e-61
1.33922e-60
-3.36721e-60
8.45407e-60
-2.11951e-59
5.30609e-59
-1.32642e-58
3.31092e-58
-8.25231e-58
2.0538e-57
-5.10376e-57
1.2664e-56
-3.13758e-56
7.76172e-56
-1.91715e-55
4.7281e-55
-1.16425e-54
2.86237e-54
-7.02629e-54
1.72203e-53
-4.21374e-53
1.02944e-52
-2.51094e-52
6.11464e-52
-1.48661e-51
3.60841e-51
-8.74414e-51
2.11543e-50
-5.10925e-50
1.23193e-49
-2.9654e-49
7.12592e-49
-1.70945e-48
4.09377e-48
-9.78676e-48
2.33559e-47
-5.56407e-47
1.32319e-46
-3.14107e-46
7.44316e-46
-1.76057e-45
4.15684e-45
-9.79671e-45
2.30462e-44
-5.41145e-44
1.26829e-43
-2.96696e-43
6.9276e-43
-1.61447e-42
3.7553e-42
-8.71811e-42
2.02003e-41
-4.67138e-41
1.07815e-40
-2.48342e-40
5.70894e-40
-1.30975e-39
2.99877e-39
-6.85193e-39
1.5624e-38
-3.55526e-38
8.07323e-38
-1.82942e-37
4.13676e-37
-9.33435e-37
2.10173e-36
-4.72207e-36
1.05863e-35
-2.3681e-35
5.28567e-35
-1.17716e-34
2.61574e-34
-5.79927e-34
1.28281e-33
-2.83112e-33
6.23376e-33
-1.3694e-32
3.00117e-32
-6.56183e-32
1.43128e-31
-3.11443e-31
6.76055e-31
-1.46395e-30
3.16228e-30
-6.81392e-30
1.46457e-29
-3.13997e-29
6.71488e-29
-1.43232e-28
3.04731e-28
-6.46642e-28
1.36858e-27
-2.88885e-27
6.08164e-27
-1.27687e-26
2.67357e-26
-5.58272e-26
1.16252e-25
-2.41404e-25
4.9988e-25
-1.03218e-24
2.12521e-24
-4.36309e-24
8.93141e-24
-1.82293e-23
3.70963e-23
-7.52647e-23
1.52244e-22
-3.07018e-22
6.17236e-22
-1.23706e-21
2.47153e-21
-4.92229e-21
9.77193e-21
-1.93371e-20
3.81408e-20
-7.49822e-20
1.46921e-19
-2.86915e-19
5.58406e-19
-1.08308e-18
2.0935e-18
-4.03243e-18
7.73978e-18
-1.48028e-17
2.82094e-17
-5.3563e-17
1.0133e-16
-1.90985e-16
3.58615e-16
-6.70826e-16
1.25004e-15
-2.32036e-15
4.29024e-15
-7.90106e-15
1.44927e-14
-2.64758e-14
4.81692e-14
-8.72746e-14
1.57465e-13
-2.82901e-13
5.0608e-13
-9.01396e-13
1.59846e-12
-2.82197e-12
4.95959e-12
-8.67674e-12
1.51099e-11
-2.61898e-11
4.51799e-11
-7.75664e-11
1.32523e-10
-2.25303e-10
3.81131e-10
-6.41484e-10
1.07416e-09
-1.78935e-09
2.96505e-09
-4.88706e-09
8.01141e-09
-1.30612e-08
2.11754e-08
-3.41368e-08
5.47166e-08
-8.71932e-08
1.38125e-07
-2.17497e-07
3.40392e-07
-5.29434e-07
8.18285e-07
-1.25665e-06
1.91732e-06
-2.906e-06
4.37493e-06
-6.54136e-06
9.71258e-06
-1.43191e-05
2.09583e-05
-3.04506e-05
4.39112e-05
-6.28393e-05
8.92276e-05
-0.000125693
0.000175629
-0.000243377
0.000334416
-0.000455553
0.000615107
-0.000823068
0.0010912
-0.00143304
0.0018638
-0.00240007
0.00305927
-0.00385892
0.00481555
-0.00594328
0.00725219
-0.00874637
0.0104219
-0.0122647
0.014249
-0.0163355
0.0184713
-0.0205901
0.0226137
-0.0244555
0.0260245
-0.0272317
0.0279965
-0.028254
0.027962
-0.0271066
0.0257062
-0.0238126
0.0215092
-0.0189056
0.0161293
-0.0133156
0.0105954
-0.00808436
0.00587321
-0.00402092
0.00255219
-0.00145874
0.000704571
-0.000233998
-1.88868e-05
0.000120815
-0.000131494
9.83064e-05
-5.39953e-05
1.71682e-05
5.07563e-06
-1.33861e-05
1.23e-05
-7.09694e-06
1.82756e-06
1.43331e-06
-2.38287e-06
1.77842e-06
-6.55961e-07
-2.17673e-07
5.48783e-07
-4.34749e-07
1.44841e-07
8.55403e-08
-1.58293e-07
1.04549e-07
-1.27441e-08
-4.50388e-08
4.80127e-08
-1.80335e-08
-1.12299e-08
2.05219e-08
-1.20105e-08
-4.48601e-10
5.33344e-09
-6.40126e-10
-8.49442e-09
1.67998e-08
-2.38242e-08
3.38723e-08
-5.28566e-08
8.59687e-08
-1.38415e-07
2.18498e-07
-3.40911e-07
5.29133e-07
-8.17734e-07
1.25648e-06
-1.91758e-06
2.90628e-06
-4.37492e-06
6.54115e-06
-9.71246e-06
1.43192e-05
-2.09584e-05
3.04506e-05
-4.39111e-05
6.28393e-05
-8.92276e-05
0.000125693
-0.000175629
0.000243377
-0.000334416
0.000455553
-0.000615107
0.000823068
-0.0010912
0.00143304
-0.0018638
0.00240007
-0.00305927
0.00385892
-0.00481555
0.00594328
-0.00725219
0.00874637
-0.0104219
0.0122647
-0.014249
0.0163355
-0.0184713
0.0205901
-0.0226137
0.0244555
-0.0260245
0.0272317
-0.0279965
0.028254
-0.027962
0.0271066
-0.0257062
0.0238126
-0.0215092
0.0189056
-0.0161293
0.0133156
-0.0105954
0.00808436
-0.00587321
0.00402092
-0.00255219
0.00145874
-0.000704571
0.000233998
1.88868e-05
-0.000120815
0.000131494
-9.83064e-05
5.39952e-05
-1.71682e-05
-5.07561e-06
1.33861e-05
-1.23e-05
7.09685e-06
-1.82763e-06
-1.43323e-06
2.38302e-06
-1.77842e-06
6.55758e-07
2.17508e-07
-5.4863e-07
4.35121e-07
-1.44753e-07
-8.59904e-08
1.57716e-07
-1.04369e-07
1.37031e-08
4.59019e-08
-4.88794e-08
1.62339e-08
9.75845e-09
-1.78861e-08
1.50552e-08
3.97254e-09
-1.29513e-08
-3.34725e-09
-3.34725e-09
6.25677e-09
2.31806e-08
1.2098e-08
-2.08433e-08
-4.84879e-08
-4.20124e-08
2.3101e-08
1.17882e-07
1.50081e-07
3.20086e-08
-2.30076e-07
-4.73782e-07
-4.1502e-07
1.64854e-07
1.1486e-06
1.91474e-06
1.47649e-06
-9.57682e-07
-5.11912e-06
-8.93538e-06
-8.54098e-06
3.83508e-07
1.97804e-05
4.54665e-05
6.39283e-05
5.18357e-05
-1.93278e-05
-0.000171629
-0.00040143
-0.000653738
-0.00079344
-0.000578329
0.000360241
0.00252355
0.00653447
0.0131076
0.0230017
0.0369593
0.055639
0.0795499
0.108995
0.14403
0.184445
0.229766
0.279285
0.332098
0.387167
0.443383
0.499633
0.554862
0.608118
0.658598
0.705667
0.748871
0.787932
0.822739
0.853323
0.879837
0.902524
0.921692
0.93769
0.950886
0.961645
0.970319
0.977237
0.982697
0.986961
0.990257
0.992782
0.994696
0.996134
0.997205
0.997995
0.998573
0.998992
0.999293
0.999508
0.99966
0.999767
0.999841
0.999892
0.999928
0.999952
0.999968
0.999979
0.999986
0.999991
0.999994
0.999996
0.999998
0.999998
0.999999
0.999999
1
1
1
1
1
1
1
1
1
1
1
1
1
1
1
1
1
1
1
1
1
0.999999
0.999998
0.999999
1
1.00001
1.00001
1.00001
1
0.99998
0.999955
0.999936
0.999948
1.00002
1.00017
1.0004
1.00065
1.00079
1.00058
0.99964
0.997476
0.993466
0.986892
0.976998
0.963041
0.944361
0.92045
0.891005
0.85597
0.815555
0.770234
0.720715
0.667902
0.612833
0.556617
0.500367
0.445138
0.391882
0.341402
0.294333
0.251129
0.212068
0.177261
0.146677
0.120163
0.0974763
0.0783081
0.0623095
0.0491141
0.0383552
0.0296807
0.0227626
0.0173032
0.0130393
0.0097425
0.00721826
0.005304
0.00386582
0.00279516
0.00200519
0.0014274
0.00100839
0.000707071
0.000492151
0.000340084
0.000233333
0.000158972
0.000107563
7.22854e-05
4.82537e-05
3.19998e-05
2.10835e-05
1.38025e-05
8.97923e-06
5.80527e-06
3.73033e-06
2.38261e-06
1.51279e-06
9.54897e-07
5.99275e-07
3.73956e-07
2.32047e-07
1.43193e-07
8.7881e-08
5.36444e-08
3.25718e-08
1.96734e-08
1.18212e-08
7.06684e-09
4.20333e-09
2.48768e-09
1.46507e-09
8.58636e-10
5.00811e-10
2.90722e-10
1.67976e-10
9.66059e-11
5.53063e-11
3.15197e-11
1.78833e-11
1.01018e-11
5.68136e-12
3.1815e-12
1.77403e-12
9.85047e-13
5.44682e-13
2.99942e-13
1.64499e-13
8.98534e-14
4.88849e-14
2.64912e-14
1.42999e-14
7.68929e-15
4.11889e-15
2.19802e-15
1.16858e-15
6.18982e-16
3.26667e-16
1.71774e-16
9.00012e-17
4.6989e-17
2.44464e-17
1.26742e-17
6.54832e-18
3.37174e-18
1.73025e-18
8.84931e-19
4.51096e-19
2.29193e-19
1.1607e-19
5.85917e-20
2.94827e-20
1.47885e-20
7.39465e-21
3.68607e-21
1.83177e-21
9.07519e-22
4.48257e-22
2.20749e-22
1.08388e-22
5.30619e-23
2.59012e-23
1.26067e-23
6.11842e-24
2.96103e-24
1.42897e-24
6.8769e-25
3.30034e-25
1.57955e-25
7.53921e-26
3.58878e-26
1.70375e-26
8.06699e-27
3.80956e-27
1.79434e-27
8.42966e-28
3.95003e-28
1.84623e-28
8.6074e-29
4.00286e-29
1.85691e-29
8.59287e-30
3.96665e-30
1.82665e-30
8.39151e-31
3.84581e-31
1.75835e-31
8.02048e-32
3.64991e-32
1.65713e-32
7.50643e-33
3.39249e-33
1.52975e-33
6.88249e-34
3.08959e-34
1.38387e-34
6.18494e-35
2.75821e-35
1.22738e-35
5.44999e-36
2.41483e-36
1.06772e-36
4.71099e-37
2.07425e-37
9.11399e-38
3.99634e-38
1.74875e-38
7.6368e-39
3.32828e-39
1.44763e-39
6.28396e-40
2.7224e-40
1.17711e-40
5.0797e-41
2.18785e-41
9.40512e-42
4.03536e-42
1.72813e-42
7.38677e-43
3.15152e-43
1.34208e-43
5.70475e-44
2.42046e-44
1.02511e-44
4.33367e-45
1.82878e-45
7.70357e-46
3.23931e-46
1.35971e-46
5.69747e-47
2.38321e-47
9.95156e-48
4.14834e-48
1.7263e-48
7.17171e-49
2.97439e-49
1.23153e-49
5.09061e-50
2.10076e-50
8.65505e-51
3.56003e-51
1.46195e-51
5.99393e-52
2.45355e-52
1.00273e-52
4.09156e-53
1.6669e-53
6.78029e-54
2.75368e-54
1.11662e-54
4.52099e-55
1.82766e-55
7.37734e-56
2.97336e-56
1.19659e-56
4.80832e-57
1.92929e-57
7.72971e-58
3.09237e-58
1.23534e-58
4.9278e-59
1.96288e-59
7.8075e-60
3.10107e-60
1.22998e-60
4.8716e-61
1.9268e-61
7.61026e-62
3.00165e-62
1.18229e-62
4.65041e-63
1.8267e-63
7.16569e-64
2.80713e-64
1.09821e-64
4.29074e-65
1.67418e-65
6.52382e-66
2.53882e-66
9.86727e-67
3.83e-67
1.48471e-67
5.74815e-68
2.2226e-68
8.58308e-69
3.31038e-69
1.27517e-69
4.90587e-70
1.88506e-70
7.23434e-71
2.77293e-71
1.06157e-71
4.05911e-72
1.5502e-72
5.91319e-73
2.25288e-73
8.57306e-74
3.25852e-74
1.23707e-74
4.69091e-75
1.7767e-75
6.72154e-76
2.53993e-76
9.58684e-77
3.61438e-77
1.36112e-77
5.12002e-78
1.92378e-78
7.22029e-79
2.70688e-79
1.01368e-79
3.7919e-80
1.41688e-80
5.28856e-81
1.97183e-81
7.34396e-82
2.73228e-82
1.01544e-82
3.76981e-83
1.39806e-83
5.17933e-84
1.91675e-84
7.08601e-85
2.6169e-85
9.65435e-86
3.55805e-86
1.30995e-86
4.81786e-87
1.77016e-87
6.4973e-88
2.3824e-88
8.72696e-89
3.19358e-89
1.16751e-89
4.26399e-90
1.55577e-90
5.67085e-91
2.06504e-91
7.51255e-92
2.73041e-92
9.91405e-93
3.59632e-93
1.30333e-93
4.71885e-94
1.70691e-94
6.16845e-95
2.22708e-95
8.03326e-96
2.89498e-96
1.04232e-96
3.74933e-97
1.34745e-97
4.8381e-98
1.73558e-98
6.22045e-99
2.22746e-99
7.96911e-100
2.84855e-100
1.01731e-100
3.62992e-101
1.29408e-101
4.60942e-102
1.64041e-102
5.83289e-103
2.07223e-103
7.35565e-104
2.60875e-104
9.24427e-105
3.27299e-105
1.15785e-105
4.09252e-106
1.44533e-106
5.10014e-107
1.79819e-107
6.33477e-108
2.22981e-108
7.84241e-109
2.75598e-109
9.67721e-110
3.39526e-110
1.19027e-110
4.16934e-111
1.4593e-111
5.10357e-112
1.78345e-112
6.22735e-113
2.17273e-113
7.57472e-114
2.63869e-114
9.1849e-115
3.19466e-115
1.1103e-115
3.85585e-116
1.33804e-116
4.6397e-117
1.60761e-117
5.56598e-118
1.92565e-118
6.65715e-119
2.29972e-119
7.93853e-120
2.73821e-120
9.44112e-121
3.2433e-121
1.14111e-121
3.20196e-122
)
;

boundaryField
{
    sides
    {
        type            inletOutlet;
        inletValue      uniform 0;
        value           nonuniform List<scalar> 2(3.20196e-122 0);
    }
    empty
    {
        type            empty;
    }
}


// ************************************************************************* //
