/*--------------------------------*- C++ -*----------------------------------*\
| =========                 |                                                 |
| \\      /  F ield         | OpenFOAM: The Open Source CFD Toolbox           |
|  \\    /   O peration     | Version:  v1912                                 |
|   \\  /    A nd           | Website:  www.openfoam.com                      |
|    \\/     M anipulation  |                                                 |
\*---------------------------------------------------------------------------*/
FoamFile
{
    version     2.0;
    format      ascii;
    class       surfaceScalarField;
    location    "0.003";
    object      phi;
}
// * * * * * * * * * * * * * * * * * * * * * * * * * * * * * * * * * * * * * //

dimensions      [1 0 -1 0 0 0 0];
oriented        oriented;


internalField   nonuniform List<scalar> 
99
(
1.03455e-11
2.79954e-12
4.00746e-12
-2.224e-12
5.24381e-12
7.31859e-12
-6.46594e-13
-5.69145e-12
-4.44089e-12
-3.33955e-12
-3.72324e-12
-2.2311e-12
3.90799e-13
-2.13163e-12
1.55609e-12
8.42704e-12
3.66711e-11
2.18591e-10
1.32636e-09
7.74323e-09
4.36457e-08
2.36827e-07
1.23832e-06
6.21441e-06
2.99359e-05
0.000137866
0.0006066
0.00253925
0.0100949
0.0379397
0.13436
0.445876
1.3787
3.9402
10.2978
24.2335
50.0888
88.3098
137.245
192.435
248.336
300.609
347.027
385.887
419.225
444.491
461.684
479.188
490.254
491.676
488.875
494.631
501.487
499.735
496.75
486.745
452.047
391.306
353.63
327.44
307.377
297.569
291.985
286.95
279.545
262.445
218.015
51.6728
10.1619
1.52859
0.216758
0.0299873
0.00406898
0.000542695
7.12035e-05
9.19856e-06
1.17147e-06
1.47275e-07
1.83035e-08
2.25211e-09
2.7454e-10
3.30713e-11
3.93729e-12
4.65405e-13
-1.01696e-13
-2.06057e-13
-1.33227e-15
2.10498e-13
1.2168e-13
-1.19016e-13
-1.07025e-13
1.77636e-15
0
0
0
-1.77636e-15
1.33227e-15
-1.00808e-13
-2.34479e-13
)
;

boundaryField
{
    sides
    {
        type            calculated;
        value           nonuniform List<scalar> 2(-2.16824e-13 -1.68977e-11);
    }
    empty
    {
        type            empty;
        value           nonuniform 0();
    }
}


// ************************************************************************* //
