/*--------------------------------*- C++ -*----------------------------------*\
| =========                 |                                                 |
| \\      /  F ield         | OpenFOAM: The Open Source CFD Toolbox           |
|  \\    /   O peration     | Version:  v1912                                 |
|   \\  /    A nd           | Website:  www.openfoam.com                      |
|    \\/     M anipulation  |                                                 |
\*---------------------------------------------------------------------------*/
FoamFile
{
    version     2.0;
    format      ascii;
    class       volScalarField;
    location    "5";
    object      T;
}
// * * * * * * * * * * * * * * * * * * * * * * * * * * * * * * * * * * * * * //

dimensions      [0 0 0 1 0 0 0];


internalField   nonuniform List<scalar> 
1000
(
-0.000117451
0.00018179
-0.000186237
0.00025817
-0.000266317
0.000353784
-0.000364158
0.000475719
-0.000486169
0.000631166
-0.000638962
0.000827491
-0.000829501
0.00107218
-0.00106512
0.00137261
-0.00135343
0.00173574
-0.00170198
0.00216761
-0.0021179
0.00267278
-0.00260724
0.00325374
-0.0031743
0.00391023
-0.00382076
0.00463866
-0.00454486
0.00543153
-0.00534063
0.00627711
-0.00619722
0.00715918
-0.00709851
0.00805721
-0.00802312
0.00894669
-0.0089448
0.00979992
-0.0098333
0.0105871
-0.0106557
0.0112779
-0.0113785
0.011843
-0.011969
0.0122561
-0.0123984
0.0124955
-0.0126435
0.0125463
-0.0126887
0.0124016
-0.0125275
0.0120629
-0.0121634
0.0115412
-0.0116098
0.010856
-0.0108894
0.0100343
-0.0100324
0.00910886
-0.00907479
0.00811612
-0.00805549
0.00709357
-0.00701374
0.00607734
-0.00598653
0.00509997
-0.00500632
0.00418859
-0.00409932
0.00336365
-0.00328453
0.00263843
-0.00257339
0.0020191
-0.00197012
0.00150538
-0.0014727
0.00109169
-0.00107408
0.000768527
-0.000763742
0.00052389
-0.000529103
0.000344695
-0.000356927
0.000217934
-0.000234385
0.000131561
-0.000149846
7.50731e-05
-9.33459e-05
3.97949e-05
-5.67734e-05
1.8917e-05
-3.38391e-05
7.35618e-06
-1.98882e-05
1.50546e-06
-1.16314e-05
-1.06205e-06
-6.84936e-06
-1.88831e-06
-4.11275e-06
-1.8916e-06
-2.5431e-06
-1.57793e-06
-1.62481e-06
-1.19905e-06
-1.06798e-06
-8.617e-07
-7.15248e-07
-5.97727e-07
-4.82813e-07
-4.05255e-07
-3.25561e-07
-2.70679e-07
-2.18e-07
-1.7892e-07
-1.44523e-07
-1.17293e-07
-9.4768e-08
-7.63002e-08
-6.14803e-08
-4.92371e-08
-3.94888e-08
-3.15028e-08
-2.51298e-08
-1.99769e-08
-1.58523e-08
-1.25539e-08
-9.91482e-09
-7.81884e-09
-6.1487e-09
-4.82742e-09
-3.7808e-09
-2.95522e-09
-2.30512e-09
-1.79404e-09
-1.39362e-09
-1.08015e-09
-8.3559e-10
-6.45023e-10
-4.96926e-10
-3.82058e-10
-2.9315e-10
-2.24484e-10
-1.71563e-10
-1.30853e-10
-9.96164e-11
-7.56768e-11
-5.73909e-11
-4.34271e-11
-3.28096e-11
-2.47289e-11
-1.86144e-11
-1.39738e-11
-1.04818e-11
-7.83624e-12
-5.85895e-12
-4.36096e-12
-3.25145e-12
-2.40833e-12
-1.79194e-12
-1.31961e-12
-9.81173e-13
-7.17188e-13
-5.34145e-13
-3.86394e-13
-2.8948e-13
-2.06158e-13
-1.56529e-13
-1.08742e-13
-8.47795e-14
-5.65429e-14
-4.63036e-14
-2.8847e-14
-2.57795e-14
-1.43301e-14
-1.48662e-14
-6.84759e-15
-9.0579e-15
-3.08949e-15
-5.93935e-15
-1.286e-15
-4.22555e-15
-4.97742e-16
-3.23782e-15
-2.29935e-16
-2.62002e-15
-2.24157e-16
-2.18618e-15
-3.4669e-16
-1.83936e-15
-5.29033e-16
-1.52898e-15
-7.36348e-16
-1.2286e-15
-9.50787e-16
-9.24604e-16
-1.16273e-15
-6.10531e-16
-1.36627e-15
-2.84385e-16
-1.55698e-15
5.26321e-17
-1.73093e-15
3.9678e-16
-1.88439e-15
7.42269e-16
-2.01379e-15
1.08179e-15
-2.11593e-15
1.40712e-15
-2.18818e-15
1.70978e-15
-2.22884e-15
1.98168e-15
-2.23734e-15
2.21576e-15
-2.21441e-15
2.40655e-15
-2.16214e-15
2.5505e-15
-2.08385e-15
2.64632e-15
-1.9839e-15
2.69489e-15
-1.86738e-15
2.69916e-15
-1.73975e-15
2.66374e-15
-1.60648e-15
2.59439e-15
-1.4727e-15
2.49749e-15
-1.34284e-15
2.37942e-15
-1.22037e-15
2.24611e-15
-1.10752e-15
2.10267e-15
-1.00517e-15
1.95307e-15
-9.12836e-16
1.80006e-15
-8.28757e-16
1.64509e-15
-7.50122e-16
1.48847e-15
-6.73358e-16
1.32955e-15
-5.94485e-16
1.16699e-15
-5.09497e-16
9.99124e-16
-4.14728e-16
8.24302e-16
-3.07186e-16
6.41192e-16
-1.84814e-16
4.49071e-16
-4.66773e-17
2.48023e-16
1.0695e-16
3.90353e-17
2.74581e-16
-1.76e-16
4.53612e-16
-3.94376e-16
6.40491e-16
-6.12731e-16
8.30968e-16
-8.27256e-16
1.02039e-15
-1.03393e-15
1.204e-15
-1.22875e-15
1.37726e-15
-1.40799e-15
1.53608e-15
-1.5684e-15
1.67701e-15
-1.70737e-15
1.7974e-15
-1.82307e-15
1.89543e-15
-1.91447e-15
1.97015e-15
-1.98134e-15
2.0214e-15
-2.02416e-15
2.04971e-15
-2.04402e-15
2.0562e-15
-2.04241e-15
2.04242e-15
-2.02113e-15
2.01015e-15
-1.98206e-15
1.96129e-15
-1.92706e-15
1.8977e-15
-1.85786e-15
1.82111e-15
-1.77601e-15
1.73301e-15
-1.68285e-15
1.63471e-15
-1.57952e-15
1.52731e-15
-1.46703e-15
1.41173e-15
-1.34633e-15
1.28886e-15
-1.21836e-15
1.15957e-15
-1.08416e-15
1.02479e-15
-9.44899e-16
8.85557e-16
-8.01888e-16
7.43016e-16
-6.56543e-16
5.98416e-16
-5.10332e-16
4.53067e-16
-3.64692e-16
3.08287e-16
-2.20955e-16
1.65348e-16
-8.02928e-17
2.54402e-17
5.63024e-17
-1.10345e-16
1.87994e-16
-2.40996e-16
3.1404e-16
-3.65536e-16
4.33694e-16
-4.82965e-16
5.46115e-16
-5.92202e-16
6.50268e-16
-6.92041e-16
7.4488e-16
-7.81135e-16
8.28437e-16
-8.58025e-16
8.99238e-16
-9.2119e-16
9.55507e-16
-9.69138e-16
9.95523e-16
-1.00051e-15
1.01778e-15
-1.01418e-15
1.02112e-15
-1.00937e-15
1.00484e-15
-9.85705e-16
9.68784e-16
-9.43281e-16
9.13335e-16
-8.82655e-16
8.39421e-16
-8.04839e-16
7.4845e-16
-7.11248e-16
6.42223e-16
-6.03622e-16
5.22814e-16
-4.83942e-16
3.9245e-16
-3.54322e-16
2.53372e-16
-2.16908e-16
1.07719e-16
-7.37726e-17
-4.25722e-17
7.31695e-17
-1.95814e-16
2.22219e-16
-3.50568e-16
3.71914e-16
-5.05577e-16
5.20996e-16
-6.59642e-16
6.68337e-16
-8.11456e-16
8.12811e-16
-9.59418e-16
9.5314e-16
-1.10147e-15
1.08773e-15
-1.235e-15
1.21454e-15
-1.3568e-15
1.331e-15
-1.46316e-15
1.43401e-15
-1.5501e-15
1.52008e-15
-1.61363e-15
1.58552e-15
-1.65023e-15
1.62678e-15
-1.65717e-15
1.64084e-15
-1.63298e-15
1.62556e-15
-1.57773e-15
1.58005e-15
-1.49319e-15
1.50493e-15
-1.38284e-15
1.40243e-15
-1.25163e-15
1.27634e-15
-1.10566e-15
1.13178e-15
-9.51622e-16
9.74882e-16
-7.96243e-16
8.12259e-16
-6.45714e-16
6.50547e-16
-5.052e-16
4.95884e-16
-3.78489e-16
3.53486e-16
-2.67826e-16
2.27334e-16
-1.73939e-16
1.19992e-16
-9.62356e-17
3.25829e-17
-3.31378e-17
-3.51045e-17
1.75018e-17
-8.43868e-17
5.79676e-17
-1.17376e-16
9.02856e-17
-1.36624e-16
1.15916e-16
-1.44754e-16
1.35562e-16
-1.4413e-16
1.49109e-16
-1.3658e-16
1.55694e-16
-1.23205e-16
1.53875e-16
-1.04302e-16
1.41891e-16
-7.93852e-17
1.17953e-16
-4.73241e-17
8.05565e-17
-6.57754e-18
2.87521e-17
4.45051e-17
-3.76277e-17
1.07342e-16
-1.17827e-16
1.82777e-16
-2.10116e-16
2.7078e-16
-3.1183e-16
3.70226e-16
-4.19501e-16
4.78783e-16
-5.29053e-16
5.92932e-16
-6.36056e-16
7.08116e-16
-7.3599e-16
8.19014e-16
-8.24517e-16
9.19905e-16
-8.97727e-16
1.0051e-15
-9.52348e-16
1.06938e-15
-9.85913e-16
1.10844e-15
-9.9688e-16
1.11923e-15
-9.84715e-16
1.10024e-15
-9.49936e-16
1.05166e-15
-8.94116e-16
9.7539e-16
-8.1984e-16
8.74935e-16
-7.30612e-16
7.55147e-16
-6.30684e-16
6.21852e-16
-5.24814e-16
4.81368e-16
-4.17939e-16
3.39958e-16
-3.14788e-16
2.03267e-16
-2.19469e-16
7.5807e-17
-1.35075e-16
-3.94435e-17
-6.33822e-17
-1.4127e-16
-4.67858e-18
-2.3023e-16
4.22211e-17
-3.08436e-16
7.97764e-17
-3.79134e-16
1.11355e-16
-4.46135e-16
1.40752e-16
-5.13178e-16
1.71654e-16
-5.8331e-16
2.07133e-16
-6.58373e-16
2.49213e-16
-7.38638e-16
2.98567e-16
-8.22651e-16
3.54388e-16
-9.07287e-16
4.14426e-16
-9.88038e-16
4.75234e-16
-1.05949e-15
5.32585e-16
-1.11598e-15
5.82046e-16
-1.15234e-15
6.19638e-16
-1.16467e-15
6.42493e-16
-1.15094e-15
6.49398e-16
-1.11147e-15
6.41123e-16
-1.04899e-15
6.20439e-16
-9.68429e-16
5.91814e-16
-8.76247e-16
5.60795e-16
-7.79593e-16
5.33184e-16
-6.85277e-16
5.14133e-16
-5.98787e-16
5.07317e-16
-5.23505e-16
5.14324e-16
-4.60252e-16
5.34357e-16
-4.07225e-16
5.64294e-16
-3.60339e-16
5.99093e-16
-3.13908e-16
6.32454e-16
-2.6156e-16
6.57672e-16
-1.97272e-16
6.68551e-16
-1.16369e-16
6.60268e-16
-1.63878e-17
6.3009e-16
1.02338e-16
5.77835e-16
2.36443e-16
5.06005e-16
3.79707e-16
4.1957e-16
5.23632e-16
3.25406e-16
6.58349e-16
2.31481e-16
7.73728e-16
1.45914e-16
8.60514e-16
7.60572e-17
9.11334e-16
2.77227e-17
9.2144e-16
4.65487e-18
8.89118e-16
8.26757e-18
8.15751e-16
3.76429e-17
7.05583e-16
8.97494e-17
5.65228e-16
1.59831e-16
4.03004e-16
2.41916e-16
2.28171e-16
3.29405e-16
5.01252e-17
4.15673e-16
-1.22357e-16
4.9465e-16
-2.81772e-16
5.61307e-16
-4.22365e-16
6.12019e-16
-5.40412e-16
6.44761e-16
-6.34283e-16
6.59154e-16
-7.04313e-16
6.56356e-16
-7.52515e-16
6.38834e-16
-7.82174e-16
6.10029e-16
-7.97363e-16
5.73947e-16
-8.02401e-16
5.34667e-16
-8.01285e-16
4.95823e-16
-7.97136e-16
4.60079e-16
-7.91725e-16
4.28709e-16
-7.85175e-16
4.0137e-16
-7.75922e-16
3.76159e-16
-7.61017e-16
3.50001e-16
-7.36729e-16
3.19309e-16
-6.99366e-16
2.80786e-16
-6.46132e-16
2.32175e-16
-5.75804e-16
1.72768e-16
-4.89093e-16
1.03572e-16
-3.88597e-16
2.70974e-17
-2.78417e-16
-5.31058e-17
-1.63544e-16
-1.33055e-16
-4.91879e-17
-2.08911e-16
5.98163e-17
-2.7742e-16
1.59427e-16
-3.36159e-16
2.46599e-16
-3.83561e-16
3.1925e-16
-4.18744e-16
3.76057e-16
-4.4121e-16
4.16142e-16
-4.50538e-16
4.38831e-16
-4.46236e-16
4.43609e-16
-4.27879e-16
4.3039e-16
-3.95558e-16
4.00038e-16
-3.50506e-16
3.54936e-16
-2.95639e-16
2.99317e-16
-2.35704e-16
2.39094e-16
-1.76854e-16
1.81108e-16
-1.2568e-16
1.31951e-16
-8.79533e-17
9.67038e-17
-6.74607e-17
7.79687e-17
-6.53015e-17
7.55089e-17
-7.98418e-17
8.65742e-17
-1.0732e-16
1.06797e-16
-1.4289e-16
1.31377e-16
-1.818e-16
1.56227e-16
-2.20382e-16
1.78804e-16
-2.56657e-16
1.98472e-16
-2.9046e-16
2.16396e-16
-3.23157e-16
2.35065e-16
-3.57095e-16
2.57646e-16
-3.94989e-16
2.87359e-16
-4.39443e-16
3.27068e-16
-4.92746e-16
3.792e-16
-5.57019e-16
4.46003e-16
-6.34633e-16
5.30001e-16
-7.28703e-16
6.34406e-16
-8.43351e-16
7.63166e-16
-9.83446e-16
9.20397e-16
-1.15366e-15
1.10919e-15
-1.35695e-15
1.32999e-15
-1.59284e-15
1.57913e-15
-1.85605e-15
1.84793e-15
-2.13609e-15
2.12298e-15
-2.41796e-15
2.38749e-15
-2.68388e-15
2.62341e-15
-2.91556e-15
2.81375e-15
-3.09637e-15
2.94447e-15
-3.21285e-15
3.00552e-15
-3.25551e-15
2.99123e-15
-3.21902e-15
2.90014e-15
-3.1022e-15
2.73489e-15
-2.90808e-15
2.50217e-15
-2.64405e-15
2.2126e-15
-2.32177e-15
1.88048e-15
-1.95682e-15
1.52301e-15
-1.56763e-15
1.15891e-15
-1.17383e-15
8.06612e-16
-7.94198e-16
4.82178e-16
-4.44415e-16
1.97283e-16
-1.3511e-16
-4.22605e-17
1.29418e-16
-2.37197e-16
3.51604e-16
-3.94607e-16
5.40067e-16
-5.26759e-16
7.08072e-16
-6.49018e-16
8.71036e-16
-7.76973e-16
1.04343e-15
-9.23395e-16
1.23597e-15
-1.09619e-15
1.45452e-15
-1.29872e-15
1.70184e-15
-1.53354e-15
1.98304e-15
-1.80993e-15
2.31521e-15
-2.1561e-15
2.74262e-15
-2.63893e-15
3.36294e-15
-3.39968e-15
4.37673e-15
-4.72342e-15
6.18524e-15
-7.17628e-15
9.58264e-15
-1.18733e-14
1.61277e-14
-2.09914e-14
2.88502e-14
-3.87399e-14
5.35813e-14
-7.31805e-14
1.01441e-13
-1.39623e-13
1.93466e-13
-2.66916e-13
3.69153e-13
-5.0904e-13
7.02139e-13
-9.66267e-13
1.32873e-12
-1.82353e-12
2.49938e-12
-3.4194e-12
4.6709e-12
-6.36906e-12
8.67019e-12
-1.17818e-11
1.59827e-11
-2.16428e-11
2.92559e-11
-3.94765e-11
5.31725e-11
-7.14914e-11
9.59478e-11
-1.28537e-10
1.71881e-10
-2.29421e-10
3.05659e-10
-4.06477e-10
5.39548e-10
-7.14839e-10
9.45313e-10
-1.24773e-09
1.64377e-09
-2.16142e-09
2.8366e-09
-3.71563e-09
4.85753e-09
-6.33817e-09
8.25396e-09
-1.07275e-08
1.39156e-08
-1.80141e-08
2.32754e-08
-3.00105e-08
3.86189e-08
-4.95967e-08
6.35591e-08
-8.13031e-08
1.03755e-07
-1.32183e-07
1.67991e-07
-2.13106e-07
2.69768e-07
-3.40654e-07
4.29614e-07
-5.39912e-07
6.78335e-07
-8.48562e-07
1.06149e-06
-1.32285e-06
1.64547e-06
-2.04601e-06
2.52591e-06
-3.13939e-06
3.84043e-06
-4.7749e-06
5.79019e-06
-7.18384e-06
8.68068e-06
-1.06495e-05
1.30025e-05
-1.54572e-05
1.95901e-05
-2.17548e-05
2.99219e-05
-2.92458e-05
4.66591e-05
-3.65996e-05
7.45594e-05
-4.04222e-05
0.000121941
-3.35933e-05
0.000202901
-2.75945e-06
0.000340482
7.52148e-05
0.000570959
0.000237967
0.000949296
0.000543533
0.00155566
0.00107722
0.00250267
0.00195903
0.00394277
0.0033509
0.00607479
0.00546282
0.00914869
0.00855658
0.0134671
0.012946
0.0193827
0.0189926
0.0272897
0.0270955
0.0376103
0.0376758
0.0507745
0.0511554
0.0671949
0.0679315
0.0872386
0.088348
0.111197
0.112667
0.139255
0.141043
0.171472
0.1735
0.207755
0.209919
0.24786
0.25003
0.291383
0.29342
0.337781
0.339543
0.386387
0.387749
0.436446
0.437307
0.487149
0.487443
0.537672
0.537378
0.58722
0.586359
0.635055
0.633693
0.680536
0.678773
0.723134
0.721097
0.762451
0.760281
0.798222
0.796058
0.830313
0.828285
0.858713
0.856926
0.883513
0.882043
0.904891
0.903783
0.923089
0.922354
0.938391
0.938013
0.951108
0.951047
0.961557
0.961757
0.970047
0.970445
0.976872
0.977406
0.9823
0.982912
0.986574
0.987214
0.989903
0.990536
0.992469
0.993071
0.994421
0.994983
0.995884
0.996404
0.996953
0.997442
0.997701
0.998172
)
;

boundaryField
{
    sides
    {
        type            inletOutlet;
        inletValue      uniform 0;
        value           nonuniform List<scalar> 2(0.998172 0);
    }
    empty
    {
        type            empty;
    }
}


// ************************************************************************* //
