/*--------------------------------*- C++ -*----------------------------------*\
| =========                 |                                                 |
| \\      /  F ield         | OpenFOAM: The Open Source CFD Toolbox           |
|  \\    /   O peration     | Version:  v1912                                 |
|   \\  /    A nd           | Website:  www.openfoam.com                      |
|    \\/     M anipulation  |                                                 |
\*---------------------------------------------------------------------------*/
FoamFile
{
    version     2.0;
    format      ascii;
    class       volScalarField;
    location    "0.001";
    object      mag(U);
}
// * * * * * * * * * * * * * * * * * * * * * * * * * * * * * * * * * * * * * //

dimensions      [0 1 -1 0 0 0 0];


internalField   nonuniform List<scalar> 
1000
(
2.47984e-13
2.47984e-13
1.6046e-13
2.33397e-13
1.31286e-13
3.06333e-13
1.6046e-13
1.31286e-13
1.31286e-13
1.16698e-13
2.91746e-14
2.77159e-13
3.93857e-13
4.52206e-13
5.98079e-13
5.10556e-13
4.23032e-13
3.35508e-13
2.04222e-13
3.7927e-13
2.04222e-13
5.98079e-13
2.33397e-13
2.77159e-13
4.37619e-14
1.75048e-13
1.45873e-14
2.91746e-14
7.29365e-14
5.83492e-14
1.6046e-13
1.89635e-13
1.31286e-13
5.83492e-14
2.1881e-13
2.47984e-13
4.37619e-14
1.45873e-14
1.45873e-14
2.04222e-13
1.45873e-14
1.89635e-13
1.16698e-13
2.91746e-14
8.75238e-14
2.58746e-28
2.91746e-14
2.04222e-13
1.31286e-13
5.83492e-14
1.31286e-13
1.75048e-13
1.16698e-13
1.16698e-13
8.75238e-14
2.77159e-13
1.6046e-13
1.89635e-13
1.16698e-13
2.91746e-14
1.02111e-13
1.45873e-14
2.91746e-14
4.37619e-14
1.00974e-28
1.16698e-13
2.01948e-28
2.04222e-13
5.83492e-14
4.37619e-14
4.37619e-14
1.16698e-13
8.75238e-14
1.75048e-13
1.75048e-13
3.20921e-13
1.02111e-13
2.33397e-13
1.75048e-13
3.50095e-13
3.06333e-13
7.29365e-14
1.45873e-13
5.83492e-14
1.31286e-13
1.45873e-14
5.83492e-14
2.1881e-13
1.6046e-13
1.45873e-14
2.91746e-14
2.62571e-13
4.08444e-13
3.06333e-13
3.93857e-13
2.77159e-13
5.98079e-13
3.50095e-13
4.08444e-13
2.04222e-13
4.37619e-14
2.04222e-13
3.06333e-13
3.35508e-13
3.06333e-13
5.25143e-13
2.62571e-13
5.54317e-13
2.62571e-13
3.20921e-13
2.91746e-14
4.37619e-14
2.77159e-13
4.37619e-14
1.16698e-13
5.40412e-28
2.91746e-14
2.04222e-13
2.1881e-13
4.37619e-13
3.50095e-13
3.93857e-13
2.62571e-13
1.89635e-13
1.75048e-13
8.75238e-14
7.29365e-14
2.04222e-13
3.7927e-13
2.91746e-13
8.75238e-14
1.31286e-13
1.45873e-13
5.83492e-14
4.23032e-13
2.77159e-13
3.64683e-13
3.06333e-13
4.08444e-13
5.54317e-13
4.23032e-13
2.62571e-13
4.08444e-13
1.75048e-13
2.47984e-13
1.31286e-13
2.1881e-13
3.06333e-13
1.45873e-13
5.83492e-14
1.6046e-13
1.16698e-13
1.45873e-14
2.62571e-13
1.45873e-13
8.75238e-14
5.83492e-14
1.45873e-13
2.91746e-14
2.04222e-13
2.04222e-13
2.1881e-13
2.91746e-14
1.16698e-13
2.91746e-13
2.47984e-13
2.33397e-13
1.02111e-13
2.91746e-14
1.45873e-14
1.16698e-13
1.02111e-13
5.83492e-14
1.45873e-13
4.37619e-14
1.45873e-14
1.89635e-13
1.45873e-13
2.62571e-13
1.75048e-13
3.64683e-13
3.64683e-13
3.20921e-13
3.50095e-13
4.37619e-13
1.6046e-13
1.45873e-13
1.16698e-13
1.6046e-13
1.31286e-13
2.33397e-13
1.89635e-13
4.81381e-13
5.3973e-13
3.06333e-13
2.04222e-13
2.96612e-28
4.37619e-14
2.04222e-13
1.16698e-13
1.31286e-13
3.7927e-13
3.93857e-13
4.95968e-13
3.64683e-13
3.93857e-13
4.08444e-13
1.45873e-13
2.04222e-13
2.04222e-13
1.02111e-13
1.6219e-27
1.89635e-13
1.89635e-13
1.16698e-13
1.45873e-14
1.45873e-13
1.31286e-13
7.29365e-14
4.10208e-28
2.91746e-14
1.6046e-13
1.45873e-13
1.02111e-13
1.6046e-13
7.29365e-14
1.45873e-13
5.83492e-14
2.91746e-14
1.16698e-13
2.04222e-13
4.37619e-14
4.37619e-14
1.45873e-14
8.75238e-14
2.91746e-14
1.45873e-14
1.02111e-13
1.31286e-13
1.02111e-13
1.75048e-13
2.77159e-13
4.08444e-13
1.16698e-13
5.83492e-14
1.16698e-13
1.45873e-14
8.75238e-14
1.45873e-14
1.3884e-28
1.02111e-13
4.37619e-14
2.91746e-14
1.16698e-13
8.75238e-14
8.75238e-14
8.75238e-14
2.1881e-13
8.75238e-14
3.7927e-13
2.04222e-13
2.1881e-13
1.45873e-14
7.29365e-14
2.91746e-14
1.31286e-13
1.16698e-13
7.29365e-14
4.37619e-14
1.45873e-13
2.04222e-13
1.31286e-13
2.33397e-13
8.75238e-14
1.6046e-13
2.62571e-13
1.02111e-13
4.37619e-13
3.7927e-13
4.37619e-13
5.68905e-13
5.54317e-13
5.83492e-13
5.10556e-13
5.25143e-13
1.75048e-13
2.77159e-13
2.77159e-13
4.81381e-13
3.20921e-13
4.08444e-13
4.52206e-13
5.98079e-13
6.41841e-13
5.10556e-13
4.08444e-13
5.3973e-13
5.25143e-13
8.89825e-13
7.73127e-13
8.16889e-13
7.5854e-13
7.43952e-13
5.68905e-13
6.56429e-13
4.52206e-13
6.27254e-13
5.3973e-13
6.12667e-13
4.66794e-13
4.81381e-13
5.54317e-13
3.7927e-13
5.25143e-13
4.08444e-13
5.10556e-13
4.95968e-13
2.1881e-13
2.33397e-13
1.6046e-13
1.6046e-13
8.75238e-14
1.45873e-14
1.45873e-14
1.59665e-27
3.64683e-13
2.33397e-13
2.62571e-13
1.89635e-13
2.91746e-13
1.31286e-13
2.04222e-13
6.72109e-28
4.37619e-14
2.62571e-13
2.47984e-13
4.52206e-13
4.23032e-13
3.06333e-13
2.62571e-13
8.75238e-14
4.92249e-28
1.45873e-13
2.1881e-13
1.02111e-13
2.91746e-14
1.31286e-13
1.45873e-14
4.37619e-14
1.02111e-13
2.1881e-13
2.91746e-13
2.04222e-13
1.02111e-13
1.16698e-13
1.31286e-13
1.16698e-13
1.89635e-13
8.75238e-14
2.91746e-14
2.91746e-14
3.35508e-13
2.62571e-13
3.50095e-13
1.6046e-13
7.29365e-14
1.02111e-13
1.16698e-13
1.45873e-14
1.02111e-13
4.37619e-14
2.91746e-14
4.37619e-14
2.47984e-13
1.16698e-13
2.62571e-13
1.75048e-13
4.37619e-14
9.46633e-29
2.27192e-28
2.91746e-14
7.29365e-14
7.29365e-14
4.37619e-14
7.29365e-14
8.75238e-14
8.75238e-14
2.33397e-13
1.16698e-13
3.20921e-13
2.77159e-13
3.93857e-13
2.33397e-13
2.62571e-13
1.45873e-14
5.83492e-14
8.75238e-14
1.45873e-14
1.45873e-14
1.45873e-14
4.37619e-14
2.04222e-13
4.37619e-14
3.06333e-13
1.16698e-13
4.37619e-14
1.16698e-13
2.33397e-13
2.47984e-13
1.75048e-13
1.6046e-13
1.3884e-28
1.45873e-14
6.87887e-28
1.02111e-13
1.45873e-13
2.91746e-14
2.62571e-13
3.35508e-13
1.16698e-12
2.78617e-12
8.18348e-12
2.26395e-11
6.26816e-11
1.72086e-10
4.66575e-10
1.24937e-09
3.30472e-09
8.6302e-09
2.22487e-08
5.65977e-08
1.42029e-07
3.51457e-07
8.57283e-07
2.06044e-06
4.87748e-06
1.13669e-05
2.60673e-05
5.87951e-05
0.000130362
0.000283979
0.000607419
0.00127492
0.00262408
0.00529249
0.010452
0.0201946
0.0381409
0.0703503
0.126602
0.222065
0.379276
0.630151
1.01758
1.5959
2.42961
3.58973
5.14795
7.16925
9.70449
12.7845
16.4168
20.5863
25.2586
30.387
35.9187
41.8007
47.9826
54.4195
61.0724
67.9084
74.8996
82.023
89.2593
96.5916
104.006
111.488
119.028
126.614
134.234
141.881
149.539
157.212
164.863
172.524
180.135
187.725
195.271
202.737
210.138
217.448
224.632
231.675
238.558
245.238
251.671
257.818
263.631
269.051
274.013
278.459
282.335
285.602
288.238
290.249
291.68
292.605
293.139
293.379
293.435
293.413
293.324
293.187
293.071
292.998
292.963
292.952
292.952
292.966
292.983
293.002
293.047
293.124
293.255
293.256
293.068
292.919
292.854
292.848
292.884
292.933
292.98
293.017
293.041
293.052
293.053
293.049
293.042
293.03
293.012
292.997
292.983
292.962
292.939
292.888
292.82
292.686
292.552
292.19
291.811
290.675
288.255
282.684
269.465
240.379
185.441
112.335
50.1309
17.1131
4.93767
1.29853
0.328253
0.0819632
0.0204006
0.00507365
0.00126151
0.000313606
7.79463e-05
1.93687e-05
4.81141e-06
1.19475e-06
2.9654e-07
7.35614e-08
1.82363e-08
4.51756e-09
1.11825e-09
2.76561e-10
6.84875e-11
1.70088e-11
4.24491e-12
1.02111e-12
2.77159e-13
7.29366e-14
5.83493e-14
1.02111e-13
1.31286e-13
1.75048e-13
3.20921e-13
4.08445e-13
3.93858e-13
4.52207e-13
1.45873e-13
4.66794e-13
1.12965e-27
1.75048e-13
7.29366e-14
1.89635e-13
2.04222e-13
2.77159e-13
1.16699e-13
4.3762e-14
2.1881e-13
1.75048e-13
3.06334e-13
1.89635e-13
4.23032e-13
1.16699e-13
2.77159e-13
1.16699e-13
1.75048e-13
1.45873e-14
7.09975e-28
1.45873e-14
2.91746e-14
1.45873e-14
8.75239e-14
1.60461e-13
1.45873e-13
1.02111e-13
1.16699e-13
8.75239e-14
2.33397e-13
2.77159e-13
2.04222e-13
1.45873e-13
5.83493e-14
4.3762e-14
3.15544e-29
1.31286e-13
1.02111e-13
1.16699e-13
2.47984e-13
2.62572e-13
3.06334e-13
3.50096e-13
5.83493e-14
2.91746e-14
8.75239e-14
8.75239e-14
1.16699e-13
8.75239e-14
1.60461e-13
2.1881e-13
2.91746e-13
1.45873e-13
2.1881e-13
4.3762e-14
2.91746e-14
1.02111e-13
7.29366e-14
1.89635e-13
3.35508e-13
1.16699e-13
2.1881e-13
1.88696e-27
1.16699e-13
2.33397e-13
2.91746e-14
8.75239e-14
1.60461e-13
1.31286e-13
2.33397e-13
2.77159e-13
2.62572e-13
1.89635e-13
8.75239e-14
8.75239e-14
2.91746e-14
1.02111e-13
2.04222e-13
1.60461e-13
1.45873e-14
2.91746e-14
1.31286e-13
1.60461e-13
5.83493e-14
7.29366e-14
4.3762e-14
1.75048e-13
1.45873e-14
1.16699e-13
2.91746e-14
5.83493e-14
2.04222e-13
2.62572e-13
1.16699e-13
4.23032e-13
3.20921e-13
4.08445e-13
3.06334e-13
2.91746e-13
6.85604e-13
4.66794e-13
5.54318e-13
2.91746e-13
2.91746e-13
1.60461e-13
1.31286e-13
1.02111e-13
4.23032e-13
3.20921e-13
4.95969e-13
2.62572e-13
3.64683e-13
3.93858e-13
3.06334e-13
4.3762e-14
8.75239e-14
7.29366e-14
4.3762e-14
2.91746e-14
7.29366e-14
8.75239e-14
1.89635e-13
1.89635e-13
3.06334e-13
8.75239e-14
8.75239e-14
1.02111e-13
2.47984e-13
8.07794e-28
1.75048e-13
1.95953e-27
5.83493e-14
5.83493e-14
7.29366e-14
1.31286e-13
1.75048e-13
8.75239e-14
4.08445e-13
3.64683e-13
4.3762e-13
4.3762e-13
1.45873e-13
3.35508e-13
1.45873e-14
5.83493e-14
1.45873e-14
2.91746e-13
4.3762e-14
2.1881e-13
8.75239e-14
4.52207e-13
2.1881e-13
3.06334e-13
4.3762e-14
1.75048e-13
3.06334e-13
1.16699e-13
1.31286e-13
1.16699e-13
5.83493e-14
1.31286e-13
1.02111e-13
1.75048e-13
1.16699e-13
1.02111e-13
1.45873e-13
1.45873e-14
2.77159e-13
1.89635e-13
4.3762e-13
2.47984e-13
5.83493e-14
8.75239e-14
2.91746e-14
1.02111e-13
2.91746e-14
1.16699e-13
1.60461e-13
1.31286e-13
3.28166e-28
2.1881e-13
1.31286e-13
5.83493e-14
1.89635e-13
2.77159e-13
2.33397e-13
1.45873e-13
1.02111e-13
2.04222e-13
3.64683e-13
4.52207e-13
5.39731e-13
3.20921e-13
4.23032e-13
1.31286e-13
2.62572e-13
2.91746e-14
2.04222e-13
2.24036e-28
1.60461e-13
1.02111e-13
1.31286e-13
1.02111e-13
1.60461e-13
2.91746e-13
2.1881e-13
1.45873e-14
3.06334e-13
8.75239e-14
1.31286e-13
2.47984e-13
1.16699e-13
2.62572e-13
2.91746e-14
2.91746e-14
2.77159e-13
3.50096e-13
5.54318e-13
3.06334e-13
2.1881e-13
1.16699e-13
1.02111e-13
1.45873e-13
7.29366e-14
2.91746e-13
2.77159e-13
7.29366e-14
1.45873e-14
3.56773e-28
2.33397e-13
4.3762e-14
8.75239e-14
2.47984e-13
5.83493e-14
1.45873e-14
8.75239e-14
2.04222e-13
2.04222e-13
2.1881e-13
7.29366e-14
2.1881e-13
2.1881e-13
3.7927e-13
1.02111e-13
3.20921e-13
1.02111e-13
2.62572e-13
1.02111e-13
8.75239e-14
3.50096e-13
2.62572e-13
2.1881e-13
1.45873e-14
1.45873e-14
3.06334e-13
1.45873e-13
7.29366e-14
1.45873e-13
5.83493e-14
2.91746e-14
4.3762e-14
1.89635e-13
2.47984e-13
1.45873e-14
2.62572e-13
7.29366e-14
7.29366e-14
2.33397e-13
8.75239e-14
1.31286e-13
8.75239e-14
5.83493e-14
1.45873e-13
1.56013e-27
1.89635e-13
1.60461e-13
2.91746e-13
1.02111e-13
1.45873e-13
1.31286e-13
4.3762e-14
1.31286e-13
2.04222e-13
2.47984e-13
2.1881e-13
5.83493e-14
1.45873e-13
1.16699e-13
7.29366e-14
1.45873e-14
2.47984e-13
2.91746e-13
3.06334e-13
2.04222e-13
1.16699e-13
5.83493e-14
2.1881e-13
4.3762e-14
2.91746e-13
1.45873e-13
2.62572e-13
1.45873e-14
4.3762e-14
1.45873e-14
1.31286e-13
5.83493e-14
1.60461e-13
1.45873e-14
5.83493e-14
3.35508e-13
8.75239e-14
1.02111e-13
4.3762e-14
1.16699e-13
3.50096e-13
1.75048e-13
1.02111e-13
1.60461e-13
1.89635e-13
5.83493e-14
1.02111e-13
1.60461e-13
4.3762e-14
8.75239e-14
1.45873e-14
1.75048e-13
5.83493e-14
3.64683e-13
2.91746e-14
5.83493e-14
1.02111e-13
2.91746e-14
1.45873e-13
8.75239e-14
2.1881e-13
1.75048e-13
1.75048e-13
2.04222e-13
1.60461e-13
2.47984e-13
1.45873e-13
8.75239e-14
8.75239e-14
8.75239e-14
5.83493e-14
2.91746e-14
2.91746e-14
2.04222e-13
1.16699e-13
1.45873e-14
1.02111e-13
3.20921e-13
1.75048e-13
1.02111e-13
1.60461e-13
2.91746e-14
5.83493e-14
7.29366e-14
8.75239e-14
2.91746e-14
1.45873e-13
1.75048e-13
1.45873e-13
1.60461e-13
1.45873e-14
8.75239e-14
7.29366e-14
8.75239e-14
1.02111e-13
2.91746e-14
1.60461e-13
7.29366e-14
1.75048e-13
7.06819e-28
2.47984e-13
2.33503e-28
2.91746e-14
1.45873e-13
1.89635e-13
1.45873e-14
1.45873e-14
2.33397e-13
1.45873e-14
8.75239e-14
3.06334e-13
3.35508e-13
1.60461e-13
5.83493e-14
1.75048e-13
2.1881e-13
1.75048e-13
3.06334e-13
1.02111e-13
1.16699e-13
1.89635e-13
3.7927e-13
3.7927e-13
4.52207e-13
3.64683e-13
1.02111e-13
1.31286e-13
2.1881e-13
4.23032e-13
3.35508e-13
5.39731e-13
6.41842e-13
4.52207e-13
5.54318e-13
)
;

boundaryField
{
    sides
    {
        type            calculated;
        value           nonuniform List<scalar> 2(5.54318e-13 2.47984e-13);
    }
    empty
    {
        type            empty;
    }
}


// ************************************************************************* //
