/*--------------------------------*- C++ -*----------------------------------*\
| =========                 |                                                 |
| \\      /  F ield         | OpenFOAM: The Open Source CFD Toolbox           |
|  \\    /   O peration     | Version:  v1912                                 |
|   \\  /    A nd           | Website:  www.openfoam.com                      |
|    \\/     M anipulation  |                                                 |
\*---------------------------------------------------------------------------*/
FoamFile
{
    version     2.0;
    format      ascii;
    class       volScalarField;
    location    "3";
    object      T;
}
// * * * * * * * * * * * * * * * * * * * * * * * * * * * * * * * * * * * * * //

dimensions      [0 0 0 1 0 0 0];


internalField   nonuniform List<scalar> 
1000
(
7.46193e-22
-1.50373e-21
2.26587e-21
-3.78306e-21
6.05724e-21
-9.82667e-21
1.58217e-20
-2.54802e-20
4.09237e-20
-6.56214e-20
1.0501e-19
-1.67722e-19
2.67362e-19
-4.25364e-19
6.7541e-19
-1.07032e-18
1.69278e-18
-2.67189e-18
4.20886e-18
-6.61659e-18
1.03806e-17
-1.62527e-17
2.53944e-17
-3.95964e-17
6.16132e-17
-9.56724e-17
1.48248e-16
-2.29234e-16
3.53712e-16
-5.44621e-16
8.36779e-16
-1.2829e-15
1.96261e-15
-2.99592e-15
4.56328e-15
-6.93534e-15
1.05171e-14
-1.59133e-14
2.40244e-14
-3.61881e-14
5.43872e-14
-8.15528e-14
1.22007e-13
-1.82109e-13
2.71189e-13
-4.02903e-13
5.97186e-13
-8.83068e-13
1.30271e-12
-1.91719e-12
2.81475e-12
-4.12254e-12
6.02328e-12
-8.77887e-12
1.27637e-11
-1.85112e-11
2.67802e-11
-3.86457e-11
5.56279e-11
-7.98695e-11
1.14382e-10
-1.63387e-10
2.32783e-10
-3.3079e-10
4.68827e-10
-6.62713e-10
9.34293e-10
-1.31364e-09
1.84204e-09
-2.57599e-09
3.59252e-09
-4.99643e-09
6.92972e-09
-9.58428e-09
1.32185e-08
-1.81792e-08
2.49304e-08
-3.40906e-08
4.6482e-08
-6.31929e-08
8.56596e-08
-1.15771e-07
1.56001e-07
-2.09581e-07
2.80713e-07
-3.74841e-07
4.98997e-07
-6.62221e-07
8.76098e-07
-1.15541e-06
1.51894e-06
-1.99048e-06
2.6e-06
-3.38516e-06
4.39299e-06
-5.68208e-06
7.32498e-06
-9.41122e-06
1.20507e-05
-1.53779e-05
1.9556e-05
-2.4783e-05
3.12969e-05
-3.93833e-05
4.9382e-05
-6.16964e-05
7.68013e-05
-9.52536e-05
0.000117702
-0.000144896
0.000177701
-0.000217101
0.000264217
-0.000320307
0.000386779
-0.000465193
0.000557261
-0.000664846
0.000789955
-0.000934721
0.00110139
-0.00129229
0.00150979
-0.00175628
0.00203406
-0.00234536
0.00269219
-0.00307631
0.00349911
-0.00396154
0.00446401
-0.00500627
0.00558733
-0.00620537
0.00685768
-0.00754053
0.00824922
-0.00897799
0.00972003
-0.0104676
0.0112119
-0.0119436
0.0126524
-0.0133278
0.0139588
-0.0145347
0.0150447
-0.015479
0.0158284
-0.0160848
0.0162417
-0.0162942
0.0162392
-0.0160758
0.0158049
-0.01543
0.0149565
-0.0143917
0.0137448
-0.0130268
0.0122498
-0.0114267
0.0105713
-0.0096974
0.00881853
-0.0079477
0.00709698
-0.00627719
0.00549769
-0.00476616
0.00408856
-0.00346902
0.00290996
-0.0024121
0.00197466
-0.00159557
0.00127163
-0.000998826
0.000772519
-0.000587707
0.000439243
-0.000322025
0.000231158
-0.000162083
0.000110665
-7.32512e-05
4.66907e-05
-2.83356e-05
1.60138e-05
-7.98847e-06
2.90602e-06
2.61586e-07
-2.2753e-06
3.68553e-06
-4.88388e-06
6.14862e-06
-7.68324e-06
9.64814e-06
-1.21858e-05
1.54407e-05
-1.95747e-05
2.4779e-05
-3.12845e-05
3.93704e-05
-4.93722e-05
6.16903e-05
-7.67984e-05
9.52529e-05
-0.000117702
0.000144897
-0.000177702
0.000217102
-0.000264217
0.000320307
-0.000386779
0.000465193
-0.000557261
0.000664846
-0.000789955
0.000934721
-0.00110139
0.00129229
-0.00150979
0.00175628
-0.00203406
0.00234536
-0.00269219
0.00307631
-0.00349911
0.00396154
-0.00446401
0.00500627
-0.00558733
0.00620537
-0.00685768
0.00754053
-0.00824922
0.00897799
-0.00972003
0.0104676
-0.0112119
0.0119436
-0.0126524
0.0133278
-0.0139588
0.0145347
-0.0150447
0.015479
-0.0158284
0.0160848
-0.0162417
0.0162942
-0.0162392
0.0160758
-0.0158049
0.01543
-0.0149565
0.0143917
-0.0137448
0.0130268
-0.0122498
0.0114267
-0.0105713
0.0096974
-0.00881853
0.0079477
-0.00709698
0.00627719
-0.00549769
0.00476616
-0.00408856
0.00346903
-0.00290997
0.00241211
-0.00197467
0.00159558
-0.00127166
0.000998861
-0.000772566
0.000587771
-0.000439329
0.00032214
-0.000231314
0.000162292
-0.000110946
7.36261e-05
-4.71897e-05
2.89978e-05
-1.68899e-05
9.14388e-06
-4.42496e-06
1.72889e-06
-3.24702e-07
-3.00378e-07
4.90889e-07
-4.66538e-07
3.58262e-07
-2.36914e-07
1.35078e-07
-6.28557e-08
1.86413e-08
4.01458e-09
-1.24427e-08
1.28933e-08
-9.84781e-09
6.05001e-09
-2.87121e-09
7.62699e-10
3.39654e-10
-7.15992e-10
6.75786e-10
-4.65013e-10
2.38524e-10
-6.96467e-11
-2.48319e-11
5.84744e-11
-5.49797e-11
3.60006e-11
-1.60065e-11
1.89167e-12
5.0242e-12
-6.41798e-12
4.83937e-12
-2.44073e-12
4.90816e-13
5.71517e-13
-8.48836e-13
6.62448e-13
-3.29697e-13
5.13668e-14
9.58436e-14
-1.26175e-13
8.86674e-14
-3.48325e-14
-6.4507e-15
2.39002e-14
-2.40965e-14
1.45806e-14
-5.83295e-15
-3.29985e-16
9.78808e-16
-3.17772e-16
-2.42239e-15
3.18072e-15
-4.4447e-15
3.53769e-15
-3.84756e-15
2.76822e-15
-3.37049e-15
2.72888e-15
-3.56544e-15
3.05192e-15
-3.77317e-15
3.24251e-15
-3.82617e-15
3.37648e-15
-3.89057e-15
3.57222e-15
-4.00187e-15
3.7904e-15
-4.10378e-15
3.98088e-15
-4.17685e-15
4.13662e-15
-4.22352e-15
4.25183e-15
-4.23379e-15
4.31197e-15
-4.19377e-15
4.30858e-15
-4.09636e-15
4.24138e-15
-3.93886e-15
4.11388e-15
-3.72144e-15
3.93307e-15
-3.44893e-15
3.70998e-15
-3.1308e-15
3.45829e-15
-2.77981e-15
3.19263e-15
-2.41073e-15
2.92727e-15
-2.03913e-15
2.67434e-15
-1.67977e-15
2.4422e-15
-1.34506e-15
2.23424e-15
-1.0437e-15
2.04841e-15
-7.79574e-16
1.87751e-15
-5.51234e-16
1.71022e-15
-3.52136e-16
1.53267e-15
-1.71696e-16
1.3304e-15
3.0129e-18
1.0905e-15
1.85211e-16
8.03701e-16
3.8636e-16
4.66104e-16
6.14369e-16
8.02384e-17
8.72258e-16
-3.44747e-16
1.15742e-15
-7.93863e-16
1.46159e-15
-1.24785e-15
1.77165e-15
-1.68527e-15
2.0711e-15
-2.08482e-15
2.34209e-15
-2.42753e-15
2.56774e-15
-2.69868e-15
2.73414e-15
-2.88912e-15
2.832e-15
-2.99598e-15
2.85755e-15
-3.02261e-15
2.8127e-15
-2.97773e-15
2.70451e-15
-2.87408e-15
2.54416e-15
-2.72677e-15
2.3456e-15
-2.5516e-15
2.12418e-15
-2.36364e-15
1.89531e-15
-2.17617e-15
1.67331e-15
-2.00007e-15
1.47042e-15
-1.8433e-15
1.29594e-15
-1.7107e-15
1.15554e-15
-1.60368e-15
1.05081e-15
-1.52014e-15
9.79116e-16
-1.45462e-15
9.33939e-16
-1.39884e-15
9.05676e-16
-1.34268e-15
8.82815e-16
-1.27543e-15
8.5331e-16
-1.18718e-15
8.05927e-16
-1.06997e-15
7.31372e-16
-9.18661e-16
6.23086e-16
-7.31268e-16
4.77686e-16
-5.08998e-16
2.95073e-16
-2.5594e-16
7.82698e-17
2.14276e-17
-1.66954e-16
3.14842e-16
-4.32633e-16
6.14931e-16
-7.09283e-16
9.11919e-16
-9.86674e-16
1.1963e-15
-1.25463e-15
1.45948e-15
-1.50376e-15
1.69426e-15
-1.72616e-15
1.89523e-15
-1.91579e-15
2.05897e-15
-2.06883e-15
2.18408e-15
-2.18364e-15
2.27104e-15
-2.26069e-15
2.32196e-15
-2.3022e-15
2.34013e-15
-2.31181e-15
2.32965e-15
-2.29416e-15
2.29502e-15
-2.2546e-15
2.24086e-15
-2.19873e-15
2.17164e-15
-2.13207e-15
2.09144e-15
-2.05946e-15
2.00352e-15
-1.98442e-15
1.90996e-15
-1.90843e-15
1.81116e-15
-1.83056e-15
1.70578e-15
-1.74746e-15
1.59105e-15
-1.65416e-15
1.46363e-15
-1.54539e-15
1.3209e-15
-1.41723e-15
1.16221e-15
-1.26855e-15
9.89788e-16
-1.10177e-15
8.08764e-16
-9.22567e-16
6.26377e-16
-7.38727e-16
4.50447e-16
-5.58287e-16
2.87549e-16
-3.8767e-16
1.41401e-16
-2.30256e-16
1.1898e-17
-8.58471e-17
-1.04899e-16
4.88371e-17
-2.15775e-16
1.78732e-16
-3.28555e-16
3.08466e-16
-4.49923e-16
4.40446e-16
-5.83482e-16
5.73651e-16
-7.28646e-16
7.03577e-16
-8.80718e-16
8.23397e-16
-1.03208e-15
9.25935e-16
-1.174e-15
1.0057e-15
-1.29842e-15
1.06025e-15
-1.399e-15
1.09035e-15
-1.47138e-15
1.09911e-15
-1.51256e-15
1.09029e-15
-1.52016e-15
1.0667e-15
-1.49178e-15
1.02922e-15
-1.42521e-15
9.76876e-16
-1.31931e-15
9.07904e-16
-1.17532e-15
8.21175e-16
-9.97796e-16
7.17349e-16
-7.9481e-16
5.99147e-16
-5.76877e-16
4.70705e-16
-3.5519e-16
3.3644e-16
-1.39698e-16
2.00037e-16
6.22864e-17
6.39672e-17
2.46684e-16
-7.04611e-17
4.12625e-16
-2.02872e-16
5.62192e-16
-3.33808e-16
7.0024e-16
-4.65047e-16
8.34227e-16
-5.99943e-16
9.73614e-16
-7.4318e-16
1.12834e-15
-8.99504e-16
1.30623e-15
-1.07153e-15
1.51004e-15
-1.25743e-15
1.73504e-15
-1.44953e-15
1.96832e-15
-1.63449e-15
2.19012e-15
-1.79506e-15
2.37677e-15
-1.91301e-15
2.50472e-15
-1.97226e-15
2.55447e-15
-1.96176e-15
2.51391e-15
-1.87759e-15
2.38059e-15
-1.72408e-15
2.16258e-15
-1.51376e-15
1.87762e-15
-1.26593e-15
1.5507e-15
-1.00328e-15
1.20976e-15
-7.48008e-16
8.79892e-16
-5.17778e-16
5.79813e-16
-3.2212e-16
3.22335e-16
-1.63939e-16
1.13676e-16
-4.74626e-17
-4.65404e-17
2.41405e-17
-1.53929e-16
6.45457e-17
-2.00074e-16
8.66094e-17
-2.15959e-16
6.31446e-17
-2.58971e-16
8.48965e-18
-2.58726e-16
8.34016e-17
-8.32235e-17
2.5268e-16
-6.91155e-17
-7.28672e-17
-7.25667e-16
-7.36766e-16
-7.54377e-16
6.03435e-16
1.99722e-15
3.70991e-15
2.70772e-15
-9.8542e-16
-8.93155e-15
-1.59244e-14
-1.70984e-14
-2.25571e-15
2.97737e-14
7.23211e-14
9.61422e-14
6.24519e-14
-6.73394e-14
-2.87329e-13
-5.15244e-13
-5.64694e-13
-1.88954e-13
7.98405e-13
2.30512e-12
3.7209e-12
3.79796e-12
8.62096e-13
-6.42059e-12
-1.76819e-11
-2.91256e-11
-3.22618e-11
-1.43638e-11
3.76401e-11
1.28621e-10
2.42073e-10
3.25381e-10
2.80564e-10
-2.76028e-11
-7.31141e-10
-1.87194e-09
-3.26371e-09
-4.31936e-09
-3.89631e-09
-2.62394e-10
8.65883e-09
2.45567e-08
4.72978e-08
7.26338e-08
8.9091e-08
7.44643e-08
-7.03277e-09
-2.04967e-07
-5.76959e-07
-1.17213e-06
-1.99694e-06
-2.95436e-06
-3.74563e-06
-3.72131e-06
-1.66771e-06
4.48614e-06
1.8055e-05
4.40887e-05
8.99763e-05
0.000166164
0.00028698
0.000471552
0.00074479
0.0011384
0.00169185
0.00245332
0.00348042
0.00484076
0.00661218
0.0088827
0.0117499
0.0153202
0.019707
0.025029
0.031408
0.0389656
0.0478204
0.0580842
0.0698591
0.0832333
0.0982779
0.115044
0.13356
0.153829
0.175827
0.199503
0.22478
0.251552
0.279688
0.309036
0.339423
0.370658
0.402538
0.434853
0.467387
0.499923
0.532249
0.564163
0.59547
0.625994
0.655573
0.684067
0.711353
0.737333
0.761929
0.785085
0.806764
0.826952
0.84565
0.862877
0.878667
0.893065
0.906128
0.917921
0.928515
0.937985
0.94641
0.953871
0.960447
0.966215
0.971253
0.975632
0.979422
0.982688
0.98549
0.987884
0.98992
0.991645
0.9931
0.994322
0.995344
0.996196
0.996903
0.997488
0.997969
0.998364
0.998687
0.998949
0.999162
0.999334
0.999473
0.999584
0.999673
0.999743
0.999799
0.999844
0.999879
0.999906
0.999928
0.999945
0.999959
0.99997
0.999979
0.999985
0.999987
0.999985
0.999974
0.99995
0.999905
0.99983
0.99971
0.999527
0.999254
0.998861
0.998307
0.997546
0.996519
0.995159
0.993388
0.991117
0.98825
0.98468
0.980293
0.974971
0.968592
0.961034
0.95218
0.941916
0.930141
0.916767
0.901722
0.884956
0.86644
0.846171
0.824173
0.800497
0.77522
0.748448
0.720312
0.690964
0.660577
0.629342
0.597462
0.565147
0.532613
0.500077
0.467751
0.435837
0.40453
0.374006
0.344427
0.315933
0.288647
0.262667
0.238071
0.214915
0.193236
0.173048
0.15435
0.137123
0.121333
0.106935
0.0938717
0.082079
0.0714854
0.0620151
0.0535895
0.0461289
0.0395535
0.033785
0.0287474
0.024368
0.0205777
0.0173116
0.0145095
0.0121158
0.0100797
0.00835504
0.00690024
0.00567813
0.00465567
0.0038037
0.00309661
0.00251209
0.00203077
0.00163597
0.00131337
0.00105077
0.000837819
0.000665764
0.000527266
0.000416188
0.000327423
0.000256743
0.000200663
0.000156324
0.00012139
9.39612e-05
7.24992e-05
5.5763e-05
4.2756e-05
3.26809e-05
2.49028e-05
1.89176e-05
1.43271e-05
1.08177e-05
8.14336e-06
6.11186e-06
4.57354e-06
3.41232e-06
2.53848e-06
1.88293e-06
1.39264e-06
1.02705e-06
7.55281e-07
5.5385e-07
4.04998e-07
2.95323e-07
2.1475e-07
1.55729e-07
1.1262e-07
8.12218e-08
5.8419e-08
4.1905e-08
2.99789e-08
2.13899e-08
1.52214e-08
1.08034e-08
7.64771e-09
5.39977e-09
3.80277e-09
2.67123e-09
1.87161e-09
1.30804e-09
9.11868e-10
6.34099e-10
4.39848e-10
3.0435e-10
2.10077e-10
1.44651e-10
9.93596e-11
6.80847e-11
4.65421e-11
3.174e-11
2.15942e-11
1.46569e-11
9.92495e-12
6.70504e-12
4.51926e-12
3.03901e-12
2.03892e-12
1.36483e-12
9.11529e-13
6.07413e-13
4.03853e-13
2.67913e-13
1.77337e-13
1.17125e-13
7.71869e-14
5.07564e-14
3.33039e-14
2.18053e-14
1.42461e-14
9.28756e-15
6.04206e-15
3.92238e-15
2.54098e-15
1.64265e-15
1.0597e-15
6.82217e-16
4.38297e-16
2.81011e-16
1.79801e-16
1.14811e-16
7.31635e-17
4.65302e-17
2.9533e-17
1.87076e-17
1.18268e-17
7.46214e-18
4.69904e-18
2.9533e-18
1.85253e-18
1.1598e-18
7.24718e-19
4.5198e-19
2.81359e-19
1.74797e-19
1.08421e-19
6.70725e-20
4.15013e-20
2.54905e-20
1.58587e-20
9.4678e-21
6.25802e-21
3.09322e-21
)
;

boundaryField
{
    sides
    {
        type            inletOutlet;
        inletValue      uniform 0;
        value           nonuniform List<scalar> 2(3.09322e-21 0);
    }
    empty
    {
        type            empty;
    }
}


// ************************************************************************* //
