/*--------------------------------*- C++ -*----------------------------------*\
| =========                 |                                                 |
| \\      /  F ield         | OpenFOAM: The Open Source CFD Toolbox           |
|  \\    /   O peration     | Version:  v1912                                 |
|   \\  /    A nd           | Website:  www.openfoam.com                      |
|    \\/     M anipulation  |                                                 |
\*---------------------------------------------------------------------------*/
FoamFile
{
    version     2.0;
    format      ascii;
    class       volScalarField;
    location    "2";
    object      T;
}
// * * * * * * * * * * * * * * * * * * * * * * * * * * * * * * * * * * * * * //

dimensions      [0 0 0 1 0 0 0];


internalField   nonuniform List<scalar> 
1000
(
1.99624e-57
-5.35432e-57
1.09862e-56
-2.37606e-56
5.07193e-56
-1.08404e-55
2.31273e-55
-4.92829e-55
1.04881e-54
-2.22913e-54
4.73163e-54
-1.00304e-53
2.12352e-53
-4.48974e-53
9.48009e-53
-1.99907e-52
4.20981e-52
-8.85352e-52
1.85945e-51
-3.90003e-51
8.16887e-51
-1.70869e-50
3.56921e-50
-7.44531e-50
1.55094e-49
-3.2263e-49
6.70208e-49
-1.3903e-48
2.88002e-48
-5.95761e-48
1.23064e-47
-2.53849e-47
5.22874e-47
-1.07546e-46
2.20886e-46
-4.53014e-46
9.27734e-46
-1.89715e-45
3.87383e-45
-7.89842e-45
1.60804e-44
-3.26894e-44
6.63541e-44
-1.34486e-43
2.72164e-43
-5.49954e-43
1.10959e-42
-2.23528e-42
4.4961e-42
-9.02961e-42
1.81063e-41
-3.62503e-41
7.24629e-41
-1.44623e-40
2.88184e-40
-5.73344e-40
1.13885e-39
-2.25852e-39
4.47177e-39
-8.83962e-39
1.74454e-38
-3.43731e-38
6.76152e-38
-1.32786e-37
2.6034e-37
-5.09573e-37
9.95737e-37
-1.94246e-36
3.7829e-36
-7.35462e-36
1.42743e-35
-2.76568e-35
5.34934e-35
-1.03287e-34
1.99084e-34
-3.83058e-34
7.35748e-34
-1.41067e-33
2.69991e-33
-5.15818e-33
9.83703e-33
-1.87261e-32
3.55829e-32
-6.74906e-32
1.27776e-31
-2.41464e-31
4.55461e-31
-8.57513e-31
1.61145e-30
-3.02256e-30
5.65861e-30
-1.05735e-29
1.97194e-29
-3.67058e-29
6.81923e-29
-1.26442e-28
2.33989e-28
-4.32161e-28
7.96595e-28
-1.46543e-27
2.69044e-27
-4.92955e-27
9.01392e-27
-1.64489e-26
2.9955e-26
-5.44388e-26
9.87301e-26
-1.78684e-25
3.2271e-25
-5.81602e-25
1.04597e-24
-1.87709e-24
3.36141e-24
-6.00649e-24
1.07097e-23
-1.90541e-23
3.38256e-23
-5.99161e-23
1.05895e-22
-1.86741e-22
3.28567e-22
-5.76802e-22
1.01028e-21
-1.76547e-21
3.07807e-21
-5.35413e-21
9.2915e-21
-1.60865e-20
2.77851e-20
-4.78773e-20
8.23013e-20
-1.41136e-19
2.41443e-19
-4.12032e-19
7.01424e-19
-1.19112e-18
2.01767e-18
-3.40922e-18
5.74599e-18
-9.65987e-18
1.61982e-17
-2.70922e-17
4.51955e-17
-7.51992e-17
1.24793e-16
-2.06545e-16
3.40945e-16
-5.6129e-16
9.21544e-16
-1.50891e-15
2.46387e-15
-4.01212e-15
6.51512e-15
-1.055e-14
1.70356e-14
-2.74301e-14
4.40406e-14
-7.05058e-14
1.12547e-13
-1.7913e-13
2.84265e-13
-4.49764e-13
7.09485e-13
-1.11581e-12
1.7495e-12
-2.73467e-12
4.2614e-12
-6.61979e-12
1.02511e-11
-1.58242e-11
2.43492e-11
-3.73463e-11
5.70952e-11
-8.70019e-11
1.32137e-10
-2.00019e-10
3.01759e-10
-4.53708e-10
6.79842e-10
-1.01518e-09
1.51065e-09
-2.24008e-09
3.30996e-09
-4.87339e-09
7.14946e-09
-1.04504e-08
1.52195e-08
-2.20829e-08
3.19216e-08
-4.59698e-08
6.59484e-08
-9.42459e-08
1.34163e-07
-1.90237e-07
2.68679e-07
-3.77947e-07
5.29506e-07
-7.38812e-07
1.0266e-06
-1.42055e-06
1.95739e-06
-2.68562e-06
3.66892e-06
-4.99044e-06
6.75811e-06
-9.11118e-06
1.22283e-05
-1.63372e-05
2.17262e-05
-2.87583e-05
3.78871e-05
-4.96755e-05
6.48175e-05
-8.41618e-05
0.000108738
-0.000139788
0.000178791
-0.000227501
0.000287974
-0.000362597
0.000454114
-0.000565643
0.000700689
-0.000863133
0.00105722
-0.00128751
0.00155883
-0.00187615
0.00224451
-0.00266879
0.00315359
-0.00370297
0.0043202
-0.00500746
0.00576558
-0.00659368
0.00748893
-0.00844623
0.009458
-0.010514
0.0116014
-0.0127044
0.013805
-0.0148827
0.0159153
-0.0168794
0.0177512
-0.0185069
0.0191242
-0.0195831
0.0198665
-0.0199614
0.0198598
-0.0195589
0.019062
-0.018378
0.0175219
-0.0165137
0.0153784
-0.0141441
0.0128417
-0.0115029
0.0101595
-0.00884125
0.00757534
-0.00638498
0.00528879
-0.00430028
0.00342767
-0.00267408
0.00203794
-0.00151365
0.0010924
-0.000763071
0.000513195
-0.000329799
0.000200187
-0.000112547
5.63949e-05
-2.28363e-05
4.66347e-06
3.68789e-06
-6.28862e-06
5.93598e-06
-4.40697e-06
2.71384e-06
-1.33786e-06
4.25588e-07
5.96549e-08
-2.31377e-07
2.13536e-07
-1.06054e-07
-2.71087e-08
1.56142e-07
-2.77123e-07
4.02464e-07
-5.53174e-07
7.54216e-07
-1.03304e-06
1.4207e-06
-1.95462e-06
2.68253e-06
-3.66684e-06
4.98962e-06
-6.75818e-06
9.11165e-06
-1.22288e-05
1.63374e-05
-2.17262e-05
2.87582e-05
-3.7887e-05
4.96755e-05
-6.48175e-05
8.41618e-05
-0.000108738
0.000139788
-0.000178791
0.000227501
-0.000287974
0.000362597
-0.000454114
0.000565643
-0.000700689
0.000863133
-0.00105722
0.00128751
-0.00155883
0.00187615
-0.00224451
0.00266879
-0.00315359
0.00370297
-0.0043202
0.00500746
-0.00576558
0.00659368
-0.00748893
0.00844623
-0.009458
0.010514
-0.0116014
0.0127044
-0.013805
0.0148827
-0.0159153
0.0168794
-0.0177512
0.0185069
-0.0191242
0.0195831
-0.0198665
0.0199614
-0.0198598
0.0195589
-0.019062
0.018378
-0.0175219
0.0165137
-0.0153784
0.0141441
-0.0128417
0.0115029
-0.0101595
0.00884125
-0.00757534
0.00638498
-0.00528879
0.00430028
-0.00342767
0.00267408
-0.00203794
0.00151365
-0.0010924
0.000763071
-0.000513195
0.000329799
-0.000200187
0.000112547
-5.63955e-05
2.28373e-05
-4.66498e-06
-3.68565e-06
6.28531e-06
-5.93111e-06
4.39982e-06
-2.70339e-06
1.32264e-06
-4.03505e-07
-9.15765e-08
2.77347e-07
-2.79485e-07
2.003e-07
-1.07054e-07
3.40942e-08
8.44419e-09
-2.45169e-08
2.36681e-08
-1.54033e-08
6.44122e-09
-1.48337e-10
-2.7617e-09
3.08314e-09
-2.08143e-09
8.26011e-10
7.85726e-11
-4.70195e-10
4.63877e-10
-2.69255e-10
6.32722e-11
6.242e-11
-9.55631e-11
6.89839e-11
-2.47191e-11
-8.3744e-12
2.07177e-11
-1.68986e-11
6.75737e-12
1.6711e-12
-5.07149e-12
4.19159e-12
-1.55857e-12
-6.14971e-13
1.40138e-12
-1.04068e-12
2.72726e-13
2.84344e-13
-4.1638e-13
2.45121e-13
-1.11158e-14
-1.19366e-13
1.14797e-13
-3.98228e-14
-2.81583e-14
4.92221e-14
-3.13739e-14
2.87315e-15
1.25853e-14
-1.08191e-14
1.70083e-16
7.98899e-15
-9.30917e-15
5.53904e-15
-1.63595e-15
3.10842e-16
-1.53165e-15
3.28218e-15
-4.05971e-15
3.67167e-15
-2.88538e-15
2.50968e-15
-2.70775e-15
3.1255e-15
-3.46451e-15
3.4297e-15
-3.4774e-15
3.33579e-15
-3.70343e-15
3.65807e-15
-4.1652e-15
3.89783e-15
-4.42405e-15
4.03014e-15
-4.70032e-15
4.23698e-15
-4.94809e-15
4.36417e-15
-5.04786e-15
4.4211e-15
-5.05943e-15
4.43725e-15
-4.95146e-15
4.36085e-15
-4.71088e-15
4.20674e-15
-4.37252e-15
3.979e-15
-3.94313e-15
3.67521e-15
-3.45351e-15
3.32083e-15
-2.9414e-15
2.93503e-15
-2.43726e-15
2.54475e-15
-1.97914e-15
2.18058e-15
-1.59462e-15
1.86409e-15
-1.30161e-15
1.61225e-15
-1.10615e-15
1.42908e-15
-9.97091e-16
1.30652e-15
-9.51075e-16
1.22723e-15
-9.33553e-16
1.1649e-15
-9.04571e-16
1.09087e-15
-8.24542e-16
9.76146e-16
-6.60052e-16
7.96757e-16
-3.89116e-16
5.37528e-16
-5.69999e-18
1.9292e-16
4.79711e-16
-2.29574e-16
1.04164e-15
-7.13988e-16
1.64143e-15
-1.23438e-15
2.23623e-15
-1.75771e-15
2.77767e-15
-2.25017e-15
3.22264e-15
-2.671e-15
3.5391e-15
-2.99233e-15
3.70105e-15
-3.19532e-15
3.71744e-15
-3.26917e-15
3.60343e-15
-3.24513e-15
3.38457e-15
-3.13073e-15
3.12535e-15
-2.94712e-15
2.814e-15
-2.75378e-15
2.48043e-15
-2.47862e-15
2.19579e-15
-2.18705e-15
1.81486e-15
-1.98313e-15
1.50455e-15
-1.5938e-15
1.40793e-15
-1.3828e-15
9.67193e-16
-1.53472e-15
9.17361e-16
-8.94655e-16
1.53577e-15
-9.71254e-16
3.88516e-16
-2.41129e-15
5.41684e-16
5.26226e-17
3.95242e-15
4.14633e-16
-1.13966e-15
-7.71173e-15
-4.00939e-15
2.1812e-15
1.58225e-14
1.49308e-14
1.34546e-17
-3.20162e-14
-4.59919e-14
-2.01003e-14
5.5858e-14
1.2537e-13
1.08687e-13
-5.30806e-14
-2.92615e-13
-4.07062e-13
-1.56481e-13
4.99983e-13
1.19487e-12
1.20279e-12
-1.16505e-13
-2.56079e-12
-4.58293e-12
-3.63999e-12
2.10462e-12
1.13687e-11
1.81061e-11
1.30223e-11
-1.06383e-11
-4.82505e-11
-7.73467e-11
-6.09965e-11
3.27032e-11
1.97257e-10
3.55237e-10
3.54393e-10
2.18639e-11
-7.1126e-10
-1.64533e-09
-2.19409e-09
-1.44665e-09
1.46079e-09
6.62536e-09
1.24702e-08
1.50836e-08
8.49402e-09
-1.33505e-08
-5.24219e-08
-1.00607e-07
-1.33568e-07
-1.07918e-07
3.32302e-08
3.40584e-07
8.20369e-07
1.3772e-06
1.74612e-06
1.43419e-06
-2.91949e-07
-4.31797e-06
-1.14212e-05
-2.17521e-05
-3.39685e-05
-4.39395e-05
-4.29601e-05
-1.54578e-05
6.3775e-05
0.000232718
0.000545452
0.00107544
0.00191843
0.0031947
0.00505017
0.00765622
0.0112078
0.0159198
0.0220216
0.0297495
0.0393386
0.0510124
0.0649727
0.0813893
0.10039
0.122052
0.146397
0.173383
0.202905
0.234797
0.268833
0.304733
0.342173
0.380794
0.420212
0.460034
0.499862
0.539311
0.578018
0.61565
0.651908
0.686538
0.719333
0.750131
0.778819
0.805328
0.829634
0.851749
0.871721
0.889625
0.905561
0.919643
0.932003
0.942776
0.952103
0.960126
0.966983
0.972805
0.977719
0.981839
0.985274
0.988121
0.990465
0.992386
0.99395
0.995216
0.996236
0.997052
0.997703
0.998218
0.998625
0.998943
0.999192
0.999385
0.999534
0.999648
0.999736
0.999802
0.999853
0.999891
0.999919
0.999941
0.999957
0.999968
0.999977
0.999983
0.999988
0.999991
0.999994
0.999996
0.999997
0.999998
0.999999
0.999999
0.999999
0.999999
0.999999
0.999998
0.999998
0.999998
1
1
1.00001
1.00002
1.00003
1.00004
1.00004
1.00002
0.999936
0.999767
0.999455
0.998925
0.998082
0.996805
0.99495
0.992344
0.988792
0.98408
0.977978
0.97025
0.960661
0.948988
0.935027
0.918611
0.89961
0.877948
0.853603
0.826617
0.797095
0.765203
0.731167
0.695267
0.657827
0.619206
0.579788
0.539966
0.500138
0.460689
0.421982
0.38435
0.348092
0.313462
0.280667
0.249869
0.221181
0.194672
0.170366
0.148251
0.128279
0.110375
0.0944393
0.0803567
0.0679975
0.0572244
0.0478968
0.0398736
0.0330171
0.0271947
0.0222814
0.0181607
0.0147258
0.0118794
0.00953467
0.00761432
0.0060505
0.00478416
0.00376441
0.0029477
0.00229713
0.00178165
0.00137536
0.00105678
0.000808254
0.000615354
0.000466375
0.000351882
0.000264319
0.000197674
0.000147189
0.000109126
8.05605e-05
5.9221e-05
4.33517e-05
3.16032e-05
2.29438e-05
1.65893e-05
1.19463e-05
8.56835e-06
6.1212e-06
4.35578e-06
3.08747e-06
2.18001e-06
1.53339e-06
1.07447e-06
7.50073e-07
5.21664e-07
3.6147e-07
2.49552e-07
1.7166e-07
1.17656e-07
8.03533e-08
5.46834e-08
3.70835e-08
2.50606e-08
1.68773e-08
1.13272e-08
7.57648e-09
5.05065e-09
3.35563e-09
2.22208e-09
1.46661e-09
9.64834e-10
6.32678e-10
4.13539e-10
2.69442e-10
1.75001e-10
1.13305e-10
7.3132e-11
4.70566e-11
3.01857e-11
1.93045e-11
1.23085e-11
7.82431e-12
4.959e-12
3.13371e-12
1.97446e-12
1.24043e-12
7.77033e-13
4.85356e-13
3.02303e-13
1.87757e-13
1.16286e-13
7.18207e-14
4.42351e-14
2.717e-14
1.66427e-14
1.01667e-14
6.19394e-15
3.76349e-15
2.28066e-15
1.37842e-15
8.30933e-16
4.99595e-16
2.99603e-16
1.79208e-16
1.0692e-16
6.36298e-17
3.77717e-17
2.23659e-17
1.32106e-17
7.78375e-18
4.57496e-18
2.68241e-18
1.56896e-18
9.15484e-19
5.32905e-19
3.09468e-19
1.7929e-19
1.03627e-19
5.97556e-20
3.43776e-20
1.9732e-20
1.12998e-20
6.45623e-21
3.68049e-21
2.09341e-21
1.18804e-21
6.72729e-22
3.80093e-22
2.14282e-22
1.2054e-22
6.76603e-23
3.78965e-23
2.11802e-23
1.18123e-23
6.57383e-24
3.65078e-24
2.02321e-24
1.1189e-24
6.17501e-25
3.40087e-25
1.86918e-25
1.02524e-25
5.61205e-26
3.06577e-26
1.67143e-26
9.09428e-27
4.93842e-27
2.6764e-27
1.44764e-27
7.81489e-28
4.21058e-28
2.26424e-28
1.21526e-28
6.51009e-29
3.4808e-29
1.85759e-29
9.89476e-30
5.26075e-30
2.79179e-30
1.47881e-30
7.81889e-31
4.1265e-31
2.17383e-31
1.1431e-31
6.00011e-32
3.1438e-32
1.64428e-32
8.58468e-33
4.47411e-33
2.32769e-33
1.20888e-33
6.26739e-34
3.24368e-34
1.67587e-34
8.64367e-35
4.45057e-35
2.28768e-35
1.17393e-35
6.01392e-36
3.07572e-36
1.57041e-36
8.005e-37
4.07373e-37
2.06972e-37
1.04983e-37
5.31648e-38
2.68798e-38
1.35684e-38
6.83807e-39
3.44071e-39
1.72851e-39
8.66984e-40
4.34177e-40
2.17092e-40
1.08378e-40
5.40218e-41
2.6886e-41
1.33603e-41
6.62887e-42
3.284e-42
1.62446e-42
8.02343e-43
3.95694e-43
1.94854e-43
9.58103e-44
4.70405e-44
2.30617e-44
1.12895e-44
5.5185e-45
2.69362e-45
1.31287e-45
6.38974e-46
3.10541e-46
1.50707e-46
7.30352e-47
3.53439e-47
1.70798e-47
8.24218e-48
3.97186e-48
1.91135e-48
9.18511e-49
4.40787e-49
2.1124e-49
1.01095e-49
4.83159e-50
2.30601e-50
1.09912e-50
5.23174e-51
2.48693e-51
1.1806e-51
5.59709e-52
2.65001e-52
1.25303e-52
5.91704e-53
2.79049e-53
1.31429e-53
6.18213e-54
2.90418e-54
1.36255e-54
6.38435e-55
2.98797e-55
1.39588e-55
6.52934e-56
3.01464e-56
1.46685e-56
5.46096e-57
)
;

boundaryField
{
    sides
    {
        type            inletOutlet;
        inletValue      uniform 0;
        value           nonuniform List<scalar> 2(5.46096e-57 0);
    }
    empty
    {
        type            empty;
    }
}


// ************************************************************************* //
