/*--------------------------------*- C++ -*----------------------------------*\
| =========                 |                                                 |
| \\      /  F ield         | OpenFOAM: The Open Source CFD Toolbox           |
|  \\    /   O peration     | Version:  v1912                                 |
|   \\  /    A nd           | Website:  www.openfoam.com                      |
|    \\/     M anipulation  |                                                 |
\*---------------------------------------------------------------------------*/
FoamFile
{
    version     2.0;
    format      ascii;
    class       volScalarField;
    location    "0.004";
    object      mag(U);
}
// * * * * * * * * * * * * * * * * * * * * * * * * * * * * * * * * * * * * * //

dimensions      [0 1 -1 0 0 0 0];


internalField   nonuniform List<scalar> 
100
(
3.358e-12
3.55493e-12
5.36667e-12
2.16476e-12
1.01382e-12
2.2552e-12
6.65181e-13
1.77965e-13
2.89996e-12
2.28437e-12
1.49666e-12
1.01761e-11
5.77467e-11
3.06357e-10
1.57116e-09
7.78483e-09
3.73345e-08
1.73311e-07
7.77034e-07
3.36276e-06
1.40136e-05
5.61796e-05
0.000216084
0.000796216
0.00280198
0.00939602
0.0299109
0.0900766
0.255308
0.677169
1.66749
3.77892
7.7461
14.0993
23.0039
34.3697
47.8071
62.7455
78.6621
95.1193
111.907
128.7
145.588
162.134
178.413
194.323
209.615
224.208
237.838
250.341
261.596
271.62
279.75
285.696
290.182
292.914
294.158
295.108
296.051
296.318
295.22
293.099
290.96
289.319
288.466
288.5
288.95
288.765
287.207
283.761
276.201
257.165
197
81.3903
15.7922
2.58252
0.392284
0.0582483
0.00853316
0.00123488
0.000176486
2.49008e-05
3.46694e-06
4.76257e-07
6.45477e-08
8.63255e-09
1.13923e-09
1.48336e-10
1.90175e-11
2.27562e-12
5.35355e-13
0
0
0
0
0
0
2.09736e-27
5.83493e-13
5.25144e-13
)
;

boundaryField
{
    sides
    {
        type            calculated;
        value           nonuniform List<scalar> 2(5.25144e-13 3.358e-12);
    }
    empty
    {
        type            empty;
    }
}


// ************************************************************************* //
