/*--------------------------------*- C++ -*----------------------------------*\
| =========                 |                                                 |
| \\      /  F ield         | OpenFOAM: The Open Source CFD Toolbox           |
|  \\    /   O peration     | Version:  v1912                                 |
|   \\  /    A nd           | Website:  www.openfoam.com                      |
|    \\/     M anipulation  |                                                 |
\*---------------------------------------------------------------------------*/
FoamFile
{
    version     2.0;
    format      ascii;
    class       volScalarField;
    location    "0.002";
    object      mag(U);
}
// * * * * * * * * * * * * * * * * * * * * * * * * * * * * * * * * * * * * * //

dimensions      [0 1 -1 0 0 0 0];


internalField   nonuniform List<scalar> 
100
(
1.46456e-12
8.89825e-14
5.93703e-13
6.12667e-14
2.08744e-12
1.0532e-12
1.10718e-12
2.40545e-12
2.62571e-13
3.17711e-12
4.18656e-13
4.40536e-13
0
2.97433e-27
8.65027e-13
1.14656e-12
2.39232e-13
0
1.10863e-12
8.66486e-13
1.53569e-28
4.37619e-15
1.56813e-12
1.41045e-11
1.00765e-10
7.56213e-10
5.31641e-09
3.63295e-08
2.33882e-07
1.45663e-06
8.51071e-06
4.77772e-05
0.000250304
0.00124865
0.00577367
0.0251111
0.100244
0.369655
1.22916
3.6459
9.20356
19.678
36.2921
59.0059
86.4544
115.83
146.203
175.68
203.44
228.528
250.187
268.83
284.944
295.611
297.918
295.821
292.462
286.674
279.342
270.41
251.892
188.418
68.7621
10.6677
1.43966
0.179226
0.021838
0.00263534
0.000316512
3.79556e-05
4.54766e-06
5.42888e-07
6.43417e-08
7.52771e-09
8.66701e-10
9.73733e-11
1.06838e-11
9.74433e-13
3.20921e-13
6.29317e-30
2.91746e-13
2.91746e-13
2.91746e-13
2.91746e-13
5.9903e-30
2.91746e-13
2.91746e-13
2.91746e-13
2.91746e-13
5.9903e-30
2.91746e-13
0
0
0
0
0
0
2.55902e-28
2.91746e-13
2.90288e-13
)
;

boundaryField
{
    sides
    {
        type            calculated;
        value           nonuniform List<scalar> 2(2.90288e-13 1.46456e-12);
    }
    empty
    {
        type            empty;
    }
}


// ************************************************************************* //
