/*--------------------------------*- C++ -*----------------------------------*\
| =========                 |                                                 |
| \\      /  F ield         | OpenFOAM: The Open Source CFD Toolbox           |
|  \\    /   O peration     | Version:  v1912                                 |
|   \\  /    A nd           | Website:  www.openfoam.com                      |
|    \\/     M anipulation  |                                                 |
\*---------------------------------------------------------------------------*/
FoamFile
{
    version     2.0;
    format      ascii;
    class       volVectorField;
    location    "0.002";
    object      U;
}
// * * * * * * * * * * * * * * * * * * * * * * * * * * * * * * * * * * * * * //

dimensions      [0 1 -1 0 0 0 0];


internalField   nonuniform List<vector> 
100
(
(1.46456e-12 0 0)
(8.89825e-14 0 0)
(5.93703e-13 0 0)
(-6.12667e-14 0 0)
(-2.08744e-12 0 0)
(1.0532e-12 0 0)
(1.10718e-12 0 0)
(2.40545e-12 0 0)
(2.62571e-13 0 0)
(-3.17711e-12 0 0)
(-4.18656e-13 0 0)
(-4.40536e-13 0 0)
(0 0 0)
(-2.97433e-27 0 0)
(-8.65027e-13 0 0)
(1.14656e-12 0 0)
(-2.39232e-13 0 0)
(0 0 0)
(1.10863e-12 0 0)
(-8.66486e-13 0 0)
(-1.53569e-28 0 0)
(-4.37619e-15 0 0)
(1.56813e-12 0 0)
(1.41045e-11 0 0)
(1.00765e-10 0 0)
(7.56213e-10 0 0)
(5.31641e-09 0 0)
(3.63295e-08 0 0)
(2.33882e-07 0 0)
(1.45663e-06 0 0)
(8.51071e-06 0 0)
(4.77772e-05 0 0)
(0.000250304 0 0)
(0.00124865 0 0)
(0.00577367 0 0)
(0.0251111 0 0)
(0.100244 0 0)
(0.369655 0 0)
(1.22916 0 0)
(3.6459 0 0)
(9.20356 0 0)
(19.678 0 0)
(36.2921 0 0)
(59.0059 0 0)
(86.4544 0 0)
(115.83 0 0)
(146.203 0 0)
(175.68 0 0)
(203.44 0 0)
(228.528 0 0)
(250.187 0 0)
(268.83 0 0)
(284.944 0 0)
(295.611 0 0)
(297.918 0 0)
(295.821 0 0)
(292.462 0 0)
(286.674 0 0)
(279.342 0 0)
(270.41 0 0)
(251.892 0 0)
(188.418 0 0)
(68.7621 0 0)
(10.6677 0 0)
(1.43966 0 0)
(0.179226 0 0)
(0.021838 0 0)
(0.00263534 0 0)
(0.000316512 0 0)
(3.79556e-05 0 0)
(4.54766e-06 0 0)
(5.42888e-07 0 0)
(6.43417e-08 0 0)
(7.52771e-09 0 0)
(8.66701e-10 0 0)
(9.73733e-11 0 0)
(1.06838e-11 0 0)
(9.74433e-13 0 0)
(3.20921e-13 0 0)
(6.29317e-30 0 0)
(-2.91746e-13 0 0)
(-2.91746e-13 0 0)
(2.91746e-13 0 0)
(2.91746e-13 0 0)
(5.9903e-30 0 0)
(-2.91746e-13 0 0)
(-2.91746e-13 0 0)
(2.91746e-13 0 0)
(2.91746e-13 0 0)
(5.9903e-30 0 0)
(-2.91746e-13 0 0)
(0 0 0)
(0 0 0)
(0 0 0)
(0 0 0)
(0 0 0)
(0 0 0)
(-2.55902e-28 0 0)
(-2.91746e-13 0 0)
(-2.90288e-13 0 0)
)
;

boundaryField
{
    sides
    {
        type            zeroGradient;
    }
    empty
    {
        type            empty;
    }
}


// ************************************************************************* //
