/*--------------------------------*- C++ -*----------------------------------*\
| =========                 |                                                 |
| \\      /  F ield         | OpenFOAM: The Open Source CFD Toolbox           |
|  \\    /   O peration     | Version:  v1912                                 |
|   \\  /    A nd           | Website:  www.openfoam.com                      |
|    \\/     M anipulation  |                                                 |
\*---------------------------------------------------------------------------*/
FoamFile
{
    version     2.0;
    format      ascii;
    class       volScalarField;
    location    "4";
    object      T;
}
// * * * * * * * * * * * * * * * * * * * * * * * * * * * * * * * * * * * * * //

dimensions      [0 0 0 1 0 0 0];


internalField   nonuniform List<scalar> 
1000
(
6.41979e-05
-8.90595e-05
9.79082e-05
-0.000125584
0.000144037
-0.000177488
0.000207066
-0.000249541
0.000292534
-0.000347683
0.000407155
-0.000479113
0.000558876
-0.000652294
0.000756845
-0.000876856
0.00101125
-0.00116335
0.001333
-0.00152281
0.00173316
-0.00196611
0.00222224
-0.00250309
0.00280918
-0.00314146
0.00350014
-0.00388551
0.00429721
-0.00473476
0.00519703
-0.00568261
0.00618947
-0.00671519
0.00725672
-0.00781058
0.00837271
-0.00893859
0.00950325
-0.0100613
0.010607
-0.0111345
0.0116374
-0.0121097
0.0125452
-0.0129377
0.0132818
-0.0135719
0.0138035
-0.0139723
0.0140751
-0.0141095
0.0140739
-0.0139678
0.0137918
-0.0135475
0.0132374
-0.0128653
0.0124357
-0.011954
0.0114264
-0.0108596
0.0102608
-0.00963755
0.00899741
-0.00834803
0.00769681
-0.00705087
0.0064168
-0.00580063
0.00520771
-0.00464262
0.00410912
-0.00361014
0.00314779
-0.00272333
0.00233729
-0.00198945
0.00167899
-0.00140453
0.00116422
-0.000955866
0.000777008
-0.00062501
0.000497151
-0.000390699
0.000302976
-0.00023141
0.000173585
-0.00012726
9.03976e-05
-6.11674e-05
3.7947e-05
-1.93142e-05
4.03242e-06
8.96767e-06
-2.06103e-05
3.16983e-05
-4.29374e-05
5.49604e-05
-6.83508e-05
8.3664e-05
-0.000101448
0.00012226
-0.000146684
0.000175342
-0.000208909
0.000248116
-0.000293765
0.000346729
-0.000407959
0.000478479
-0.000559394
0.000651879
-0.000757177
0.000876589
-0.00101146
0.00116318
-0.00133313
0.0015227
-0.00173325
0.00196605
-0.0022223
0.00250305
-0.00280921
0.00314144
-0.00350016
0.00388549
-0.00429722
0.00473475
-0.00519703
0.0056826
-0.00618948
0.00671518
-0.00725672
0.00781058
-0.00837271
0.00893859
-0.00950326
0.0100613
-0.010607
0.0111345
-0.0116374
0.0121097
-0.0125452
0.0129377
-0.0132818
0.0135719
-0.0138035
0.0139723
-0.0140751
0.0141095
-0.0140739
0.0139678
-0.0137918
0.0135475
-0.0132374
0.0128653
-0.0124357
0.011954
-0.0114264
0.0108596
-0.0102608
0.00963756
-0.00899743
0.00834804
-0.00769684
0.00705089
-0.00641683
0.00580068
-0.00520778
0.0046427
-0.00410923
0.00361029
-0.00314797
0.00272357
-0.0023376
0.00198986
-0.00167952
0.0014052
-0.00116508
0.000956967
-0.000778411
0.000626793
-0.000499413
0.000393559
-0.000306583
0.000235949
-0.000179279
0.000134384
-9.92878e-05
7.22307e-05
-5.16767e-05
3.63058e-05
-2.50021e-05
1.68387e-05
-1.10584e-05
7.05363e-06
-4.34575e-06
2.56497e-06
-1.43132e-06
7.37428e-07
-3.33337e-07
1.13395e-07
-5.34667e-09
-3.85618e-08
4.86283e-08
-4.31134e-08
3.22902e-08
-2.13699e-08
1.25402e-08
-6.32525e-09
2.44707e-09
-3.34996e-10
-6.01355e-10
8.48939e-10
-7.55827e-10
5.41244e-10
-3.24372e-10
1.56447e-10
-4.84177e-11
-8.63206e-12
3.03109e-11
-3.16512e-11
2.40009e-11
-1.44534e-11
6.55221e-12
-1.42299e-12
-1.15215e-12
1.93154e-12
-1.72068e-12
1.13848e-12
-5.58237e-13
1.44312e-13
7.72337e-14
-1.49348e-13
1.34309e-13
-8.52454e-14
3.61115e-14
-2.06053e-15
-1.45953e-14
1.82537e-14
-1.48995e-14
9.52059e-15
-4.98861e-15
2.37381e-15
-1.50698e-15
1.75011e-15
-2.42166e-15
3.07186e-15
-3.49483e-15
3.6795e-15
-3.70114e-15
3.66038e-15
-3.61573e-15
3.61416e-15
-3.63533e-15
3.69656e-15
-3.74448e-15
3.8132e-15
-3.8456e-15
3.89764e-15
-3.91091e-15
3.94756e-15
-3.94894e-15
3.97045e-15
-3.96098e-15
3.96222e-15
-3.93936e-15
3.91556e-15
-3.87803e-15
3.82722e-15
-3.77566e-15
3.69772e-15
-3.63376e-15
3.52975e-15
-3.45556e-15
3.32782e-15
-3.24602e-15
3.09823e-15
-3.01169e-15
2.84845e-15
-2.76007e-15
2.58625e-15
-2.49874e-15
2.31892e-15
-2.23466e-15
2.0525e-15
-1.97345e-15
1.79128e-15
-1.71892e-15
1.53732e-15
-1.47276e-15
1.29044e-15
-1.23443e-15
1.04847e-15
-1.00135e-15
8.07896e-16
-7.69271e-16
5.64581e-16
-5.3304e-16
3.1466e-16
-2.87443e-16
5.53236e-17
-2.82127e-17
-2.1453e-16
2.47046e-16
-4.93878e-16
5.38125e-16
-7.79433e-16
8.41802e-16
-1.06578e-15
1.15183e-15
-1.34579e-15
1.45932e-15
-1.61126e-15
1.75353e-15
-1.85366e-15
2.02285e-15
-2.06501e-15
2.25596e-15
-2.23867e-15
2.44297e-15
-2.36994e-15
2.57644e-15
-2.4565e-15
2.65215e-15
-2.4985e-15
2.66957e-15
-2.49836e-15
2.63195e-15
-2.46043e-15
2.54596e-15
-2.39044e-15
2.42107e-15
-2.29492e-15
2.26854e-15
-2.18066e-15
2.10034e-15
-2.05417e-15
1.92804e-15
-1.92124e-15
1.76176e-15
-1.78666e-15
1.60931e-15
-1.65402e-15
1.47559e-15
-1.52564e-15
1.36225e-15
-1.40257e-15
1.26775e-15
-1.28468e-15
1.18772e-15
-1.17074e-15
1.11557e-15
-1.05862e-15
1.04337e-15
-9.45489e-16
9.62844e-16
-8.28069e-16
8.66324e-16
-7.02968e-16
7.47637e-16
-5.66982e-16
6.02789e-16
-4.17418e-16
4.30387e-16
-2.52379e-16
2.31757e-16
-7.09995e-17
1.07622e-17
1.26384e-16
-2.26627e-16
3.38145e-16
-4.72965e-16
5.61363e-16
-7.20078e-16
7.919e-16
-9.59825e-16
1.02457e-15
-1.18482e-15
1.2534e-15
-1.38897e-15
1.47197e-15
-1.56791e-15
1.67381e-15
-1.71909e-15
1.8529e-15
-1.84174e-15
2.0041e-15
-1.9366e-15
2.12356e-15
-2.00557e-15
2.209e-15
-2.05123e-15
2.25987e-15
-2.07647e-15
2.27726e-15
-2.08409e-15
2.26377e-15
-2.07656e-15
2.22304e-15
-2.05584e-15
2.15938e-15
-2.02331e-15
2.07723e-15
-1.97982e-15
1.98067e-15
-1.92573e-15
1.87307e-15
-1.86109e-15
1.75681e-15
-1.78572e-15
1.63329e-15
-1.69944e-15
1.50294e-15
-1.60224e-15
1.36559e-15
-1.49448e-15
1.22078e-15
-1.37701e-15
1.06815e-15
-1.2513e-15
9.07805e-16
-1.11941e-15
7.40534e-16
-9.83785e-16
5.67878e-16
-8.47057e-16
3.92034e-16
-7.11619e-16
2.15613e-16
-5.79277e-16
4.13385e-17
-4.5096e-16
-1.28261e-16
-3.2659e-16
-2.91063e-16
-2.05167e-16
-4.4543e-16
-8.50741e-17
-5.90145e-16
3.5465e-17
-7.24232e-16
1.57853e-16
-8.46733e-16
2.82633e-16
-9.56516e-16
4.09156e-16
-1.05217e-15
5.35468e-16
-1.13204e-15
6.58441e-16
-1.19432e-15
7.74114e-16
-1.23731e-15
8.78169e-16
-1.25954e-15
9.66438e-16
-1.25993e-15
1.03535e-15
-1.23784e-15
1.08227e-15
-1.19304e-15
1.10567e-15
-1.12564e-15
1.10517e-15
-1.03604e-15
1.08151e-15
-9.2493e-16
1.03641e-15
-7.93376e-16
9.72378e-16
-6.42895e-16
8.92567e-16
-4.75588e-16
8.00444e-16
-2.94183e-16
6.995e-16
-1.01985e-16
5.92868e-16
9.72877e-17
4.82959e-16
2.99769e-16
3.71145e-16
5.01749e-16
2.57576e-16
6.99963e-16
1.41184e-16
8.91801e-16
1.99039e-17
1.07538e-15
-1.08896e-16
1.24947e-15
-2.47813e-16
1.41328e-15
-3.98712e-16
1.56607e-15
-5.62031e-16
1.7068e-15
-7.36186e-16
1.83366e-15
-9.17206e-16
1.94386e-15
-1.09867e-15
2.03344e-15
-1.27203e-15
2.09752e-15
-1.42735e-15
2.13069e-15
-1.55433e-15
2.12779e-15
-1.64356e-15
2.08476e-15
-1.68781e-15
1.99947e-15
-1.68308e-15
1.87241e-15
-1.62926e-15
1.70705e-15
-1.53035e-15
1.50978e-15
-1.394e-15
1.28937e-15
-1.23068e-15
1.05621e-15
-1.05238e-15
8.21179e-16
-8.71322e-16
5.94602e-16
-6.98549e-16
3.8529e-16
-5.42935e-16
1.99853e-16
-4.10482e-16
4.23431e-17
-3.04088e-16
-8.57541e-17
-2.23703e-16
-1.85243e-16
-1.66806e-16
-2.58736e-16
-1.29094e-16
-3.10049e-16
-1.0527e-16
-3.43573e-16
-8.9827e-17
-3.63672e-16
-7.77586e-17
-3.74171e-16
-6.51297e-17
-3.77977e-16
-4.94709e-17
-3.76838e-16
-2.99826e-17
-3.7126e-16
-7.5538e-18
-3.60551e-16
1.53834e-17
-3.42982e-16
3.51415e-17
-3.16045e-16
4.71893e-17
-2.76809e-16
4.66722e-17
-2.22348e-16
2.90078e-17
-1.50227e-16
-9.4982e-18
-5.89812e-17
-7.10977e-17
5.14916e-17
-1.56189e-16
1.79676e-16
-2.6311e-16
3.22378e-16
-3.88165e-16
4.7485e-16
-5.25868e-16
6.31093e-16
-6.6936e-16
7.84274e-16
-8.10957e-16
9.27215e-16
-9.42731e-16
1.05289e-15
-1.05709e-15
1.15489e-15
-1.14728e-15
1.22775e-15
-1.20779e-15
1.26729e-15
-1.23462e-15
1.27073e-15
-1.2255e-15
1.23691e-15
-1.18002e-15
1.16631e-15
-1.09969e-15
1.06126e-15
-9.88049e-16
9.26062e-16
-8.5075e-16
7.67134e-16
-6.95568e-16
5.93024e-16
-5.32132e-16
4.14013e-16
-3.7122e-16
2.41206e-16
-2.2352e-16
8.50904e-17
-9.80031e-17
-4.61541e-17
-3.28578e-19
-1.48088e-16
6.8197e-17
-2.2069e-16
1.107e-16
-2.68012e-16
1.33817e-16
-2.96985e-16
1.46143e-16
-3.15869e-16
1.56634e-16
-3.32922e-16
1.73463e-16
-3.55614e-16
2.03435e-16
-3.90277e-16
2.51714e-16
-4.41851e-16
3.21465e-16
-5.13356e-16
4.13191e-16
-6.05067e-16
5.23933e-16
-7.13705e-16
6.46748e-16
-8.3211e-16
7.7092e-16
-9.4973e-16
8.83078e-16
-1.05397e-15
9.69093e-16
-1.13217e-15
1.01642e-15
-1.17379e-15
1.01648e-15
-1.17261e-15
9.66731e-16
-1.12829e-15
8.71856e-16
-1.04713e-15
7.43745e-16
-9.41296e-16
5.99807e-16
-8.26675e-16
4.59829e-16
-7.1951e-16
3.42119e-16
-6.33012e-16
2.60151e-16
-5.75026e-16
2.20764e-16
-5.47455e-16
2.24192e-16
-5.47219e-16
2.65319e-16
-5.67746e-16
3.35032e-16
-5.99981e-16
4.20924e-16
-6.32583e-16
5.07575e-16
-6.52031e-16
5.77344e-16
-6.43713e-16
6.12616e-16
-5.94569e-16
5.994e-16
-4.96619e-16
5.31059e-16
-3.49833e-16
4.10462e-16
-1.62853e-16
2.49497e-16
4.88381e-17
6.61959e-17
2.66433e-16
-1.19191e-16
4.71436e-16
-2.87621e-16
6.48154e-16
-4.23297e-16
7.8466e-16
-5.14368e-16
8.7274e-16
-5.52996e-16
9.07624e-16
-5.35457e-16
8.88014e-16
-4.62469e-16
8.16352e-16
-3.39448e-16
6.98928e-16
-1.76267e-16
5.45467e-16
1.36852e-17
3.68133e-16
2.15028e-16
1.80159e-16
4.12176e-16
-5.61721e-18
5.91072e-16
-1.78097e-16
7.40669e-16
-3.29023e-16
8.54038e-16
-4.53634e-16
9.28771e-16
-5.50552e-16
9.6619e-16
-6.20661e-16
9.69514e-16
-6.65287e-16
9.42307e-16
-6.84911e-16
8.88588e-16
-6.80277e-16
8.1384e-16
-6.56442e-16
7.25566e-16
-6.25162e-16
6.35879e-16
-5.98086e-16
5.67283e-16
-5.76665e-16
5.44624e-16
-5.67208e-16
5.51965e-16
-6.19817e-16
5.10489e-16
-7.79231e-16
4.25725e-16
-8.52247e-16
6.27989e-16
-3.68136e-16
1.4005e-15
4.23886e-16
1.47492e-15
-9.19711e-16
-2.2497e-15
-6.57687e-15
-8.24634e-15
-8.13608e-15
7.30292e-16
1.82594e-14
4.56446e-14
7.2002e-14
7.86266e-14
3.44018e-14
-9.29912e-14
-3.18137e-13
-6.0789e-13
-8.39608e-13
-7.78571e-13
-8.07198e-14
1.61014e-12
4.46503e-12
8.1117e-12
1.11916e-11
1.09156e-11
2.93717e-12
-1.80732e-11
-5.65301e-11
-1.12187e-10
-1.7415e-10
-2.13097e-10
-1.73313e-10
3.1549e-11
5.12368e-10
1.37798e-09
2.67505e-09
4.27982e-09
5.73011e-09
5.99647e-09
3.2144e-09
-5.55792e-09
-2.44234e-08
-5.83334e-08
-1.11993e-07
-1.87397e-07
-2.79139e-07
-3.66329e-07
-3.99544e-07
-2.80803e-07
1.65929e-07
1.23669e-06
3.40544e-06
7.40172e-06
1.43124e-05
2.57118e-05
4.38239e-05
7.17211e-05
0.000113562
0.00017487
0.000262852
0.00038676
0.000558278
0.00079195
0.00110561
0.00152084
0.00206337
0.00276351
0.00365649
0.00478269
0.0061879
0.00792327
0.0100453
0.0126156
0.0157003
0.0193697
0.0236972
0.0287583
0.0346299
0.0413881
0.0491077
0.0578596
0.0677101
0.0787185
0.090936
0.104404
0.119151
0.135196
0.152542
0.171177
0.191075
0.212196
0.234482
0.257862
0.282252
0.307553
0.333656
0.360441
0.38778
0.41554
0.443581
0.471765
0.499949
0.527997
0.555772
0.583148
0.610001
0.636221
0.661704
0.686359
0.710106
0.732878
0.754619
0.775288
0.794852
0.813294
0.830605
0.846789
0.861856
0.875828
0.888732
0.900605
0.911484
0.921416
0.930448
0.938631
0.946016
0.952658
0.958608
0.963921
0.968646
0.972834
0.976534
0.97979
0.982646
0.985142
0.987316
0.989205
0.990838
0.992247
0.993459
0.994496
0.995383
0.996138
0.996778
0.99732
0.997777
0.998161
0.998483
0.998752
0.998976
0.999161
0.999313
0.999436
0.999534
0.999609
0.999661
0.999691
0.999696
0.999672
0.999615
0.999516
0.999364
0.999147
0.998846
0.998441
0.997907
0.997213
0.996325
0.995203
0.993801
0.992068
0.989948
0.987379
0.984296
0.980627
0.9763
0.97124
0.965369
0.958611
0.950892
0.94214
0.932289
0.921281
0.909064
0.895596
0.880848
0.864804
0.847458
0.828823
0.808925
0.787804
0.765518
0.742138
0.717748
0.692447
0.666344
0.639559
0.61222
0.58446
0.556419
0.528235
0.500051
0.472003
0.444228
0.416852
0.389999
0.363779
0.338296
0.313641
0.289894
0.267122
0.245381
0.224712
0.205148
0.186706
0.169395
0.153211
0.138144
0.124172
0.111268
0.0993955
0.0885158
0.0785841
0.069552
0.0613695
0.0539836
0.0473423
0.0413913
0.0360796
0.0313535
0.0271661
0.0234656
0.0202112
0.0173534
0.0148596
0.0126817
0.0107977
0.00915884
0.00775625
0.00653683
0.0055092
0.00460996
0.00387132
0.00321093
0.00269392
0.00220626
0.00186006
0.00149129
0.0012797
0.000985128
0.00088498
0.000625988
)
;

boundaryField
{
    sides
    {
        type            inletOutlet;
        inletValue      uniform 0;
        value           nonuniform List<scalar> 2(0.000625988 0);
    }
    empty
    {
        type            empty;
    }
}


// ************************************************************************* //
