/*--------------------------------*- C++ -*----------------------------------*\
| =========                 |                                                 |
| \\      /  F ield         | OpenFOAM: The Open Source CFD Toolbox           |
|  \\    /   O peration     | Version:  v1912                                 |
|   \\  /    A nd           | Website:  www.openfoam.com                      |
|    \\/     M anipulation  |                                                 |
\*---------------------------------------------------------------------------*/
FoamFile
{
    version     2.0;
    format      ascii;
    class       volScalarField;
    location    "0.001";
    object      mag(U);
}
// * * * * * * * * * * * * * * * * * * * * * * * * * * * * * * * * * * * * * //

dimensions      [0 1 -1 0 0 0 0];


internalField   nonuniform List<scalar> 
100
(
4.02609e-13
1.25451e-13
2.14579e-12
4.95968e-14
1.66733e-12
4.3616e-13
1.76506e-13
2.1137e-12
7.73127e-14
1.57543e-12
4.09903e-13
1.38579e-13
0
3.90716e-28
4.27408e-13
5.6307e-13
1.35662e-13
0
5.67446e-13
4.28867e-13
1.7486e-29
1.38579e-13
0
5.67446e-13
4.31784e-13
5.6307e-13
1.02111e-14
5.6307e-13
4.3616e-13
2.94663e-13
7.89756e-12
9.94475e-11
1.02787e-09
1.11182e-08
1.03041e-07
9.90534e-07
8.12064e-06
6.79911e-05
0.000483533
0.00343137
0.0205995
0.119053
0.577547
2.54024
8.70894
23.8312
52.103
94.9727
148.651
195.254
236.032
273.968
306.496
315.957
284.419
188.615
54.3075
7.86522
1.07846
0.140851
0.0177319
0.00211798
0.000239099
2.53555e-05
2.54394e-06
2.39991e-07
2.15592e-08
1.82657e-09
1.48458e-10
1.06619e-11
7.43953e-13
1.60461e-14
1.19487e-32
0
1.45873e-13
1.45873e-13
0
0
1.45873e-13
1.38384e-30
1.45873e-13
1.45873e-13
1.45873e-13
1.45873e-13
1.38384e-30
1.45873e-13
1.45873e-13
1.45873e-13
1.45873e-13
1.38384e-30
1.45873e-13
0
0
0
0
0
0
3.10949e-29
1.45873e-13
1.44414e-13
)
;

boundaryField
{
    sides
    {
        type            calculated;
        value           nonuniform List<scalar> 2(1.44414e-13 4.02609e-13);
    }
    empty
    {
        type            empty;
    }
}


// ************************************************************************* //
