/*--------------------------------*- C++ -*----------------------------------*\
| =========                 |                                                 |
| \\      /  F ield         | OpenFOAM: The Open Source CFD Toolbox           |
|  \\    /   O peration     | Version:  v1912                                 |
|   \\  /    A nd           | Website:  www.openfoam.com                      |
|    \\/     M anipulation  |                                                 |
\*---------------------------------------------------------------------------*/
FoamFile
{
    version     2.0;
    format      ascii;
    class       surfaceScalarField;
    location    "0.001";
    object      phi;
}
// * * * * * * * * * * * * * * * * * * * * * * * * * * * * * * * * * * * * * //

dimensions      [1 0 -1 0 0 0 0];
oriented        oriented;


internalField   nonuniform List<scalar> 
99
(
-1.20792e-12
3.74456e-12
5.40723e-12
-4.22062e-12
-3.63087e-12
-1.39977e-12
3.5314e-12
5.43565e-12
-3.9293e-12
-1.97531e-12
6.89226e-13
-4.12115e-13
4.26326e-14
-1.0516e-12
3.12639e-13
1.00897e-12
-3.97904e-13
1.35003e-12
2.41585e-13
-1.00187e-12
-1.91847e-13
-3.97904e-13
1.35003e-12
2.27374e-13
-2.15294e-12
-1.05871e-12
1.12976e-12
2.13873e-12
1.01608e-12
1.18305e-11
1.57833e-10
1.68703e-09
1.8244e-08
1.74727e-07
1.68153e-06
1.42942e-05
0.00012015
0.00088959
0.00636955
0.0400184
0.235589
1.20719
5.53496
21.4524
67.202
150.324
269.226
385.043
470.547
504.067
476.72
442.279
403.261
381.991
325.911
74.2045
13.7897
1.85407
0.244746
0.0316453
0.00393222
0.000462639
5.13616e-05
5.36119e-06
5.29092e-07
4.91974e-08
4.352e-09
3.64032e-10
2.90021e-11
2.0397e-12
1.29674e-13
2.66454e-15
-1.33227e-15
4.44089e-14
-1.77636e-15
-3.24185e-14
-1.77636e-15
4.08562e-14
4.35207e-14
-4.26326e-14
-6.57252e-14
-1.33227e-15
6.92779e-14
4.35207e-14
-4.26326e-14
-6.57252e-14
-1.33227e-15
6.83897e-14
4.35207e-14
-4.26326e-14
-3.77476e-14
1.77636e-15
0
0
0
-1.77636e-15
1.33227e-15
-3.19744e-14
-8.17124e-14
)
;

boundaryField
{
    sides
    {
        type            calculated;
        value           nonuniform List<scalar> 2(-7.13044e-14 1.61235e-12);
    }
    empty
    {
        type            empty;
        value           nonuniform 0();
    }
}


// ************************************************************************* //
