/*--------------------------------*- C++ -*----------------------------------*\
| =========                 |                                                 |
| \\      /  F ield         | OpenFOAM: The Open Source CFD Toolbox           |
|  \\    /   O peration     | Version:  v1912                                 |
|   \\  /    A nd           | Website:  www.openfoam.com                      |
|    \\/     M anipulation  |                                                 |
\*---------------------------------------------------------------------------*/
FoamFile
{
    version     2.0;
    format      ascii;
    class       volVectorField;
    location    "0.001";
    object      U;
}
// * * * * * * * * * * * * * * * * * * * * * * * * * * * * * * * * * * * * * //

dimensions      [0 1 -1 0 0 0 0];


internalField   nonuniform List<vector> 
100
(
(-4.02609e-13 0 0)
(-1.25451e-13 0 0)
(2.14579e-12 0 0)
(4.95968e-14 0 0)
(-1.66733e-12 0 0)
(-4.3616e-13 0 0)
(-1.76506e-13 0 0)
(2.1137e-12 0 0)
(7.73127e-14 0 0)
(-1.57543e-12 0 0)
(4.09903e-13 0 0)
(-1.38579e-13 0 0)
(0 0 0)
(-3.90716e-28 0 0)
(-4.27408e-13 0 0)
(5.6307e-13 0 0)
(-1.35662e-13 0 0)
(0 0 0)
(5.67446e-13 0 0)
(-4.28867e-13 0 0)
(-1.7486e-29 0 0)
(-1.38579e-13 0 0)
(0 0 0)
(5.67446e-13 0 0)
(-4.31784e-13 0 0)
(-5.6307e-13 0 0)
(1.02111e-14 0 0)
(5.6307e-13 0 0)
(4.3616e-13 0 0)
(2.94663e-13 0 0)
(7.89756e-12 0 0)
(9.94475e-11 0 0)
(1.02787e-09 0 0)
(1.11182e-08 0 0)
(1.03041e-07 0 0)
(9.90534e-07 0 0)
(8.12064e-06 0 0)
(6.79911e-05 0 0)
(0.000483533 0 0)
(0.00343137 0 0)
(0.0205995 0 0)
(0.119053 0 0)
(0.577547 0 0)
(2.54024 0 0)
(8.70894 0 0)
(23.8312 0 0)
(52.103 0 0)
(94.9727 0 0)
(148.651 0 0)
(195.254 0 0)
(236.032 0 0)
(273.968 0 0)
(306.496 0 0)
(315.957 0 0)
(284.419 0 0)
(188.615 0 0)
(54.3075 0 0)
(7.86522 0 0)
(1.07846 0 0)
(0.140851 0 0)
(0.0177319 0 0)
(0.00211798 0 0)
(0.000239099 0 0)
(2.53555e-05 0 0)
(2.54394e-06 0 0)
(2.39991e-07 0 0)
(2.15592e-08 0 0)
(1.82657e-09 0 0)
(1.48458e-10 0 0)
(1.06619e-11 0 0)
(7.43953e-13 0 0)
(1.60461e-14 0 0)
(1.19487e-32 0 0)
(0 0 0)
(1.45873e-13 0 0)
(-1.45873e-13 0 0)
(0 0 0)
(0 0 0)
(1.45873e-13 0 0)
(1.38384e-30 0 0)
(-1.45873e-13 0 0)
(-1.45873e-13 0 0)
(1.45873e-13 0 0)
(1.45873e-13 0 0)
(1.38384e-30 0 0)
(-1.45873e-13 0 0)
(-1.45873e-13 0 0)
(1.45873e-13 0 0)
(1.45873e-13 0 0)
(1.38384e-30 0 0)
(-1.45873e-13 0 0)
(0 0 0)
(0 0 0)
(0 0 0)
(0 0 0)
(0 0 0)
(0 0 0)
(-3.10949e-29 0 0)
(-1.45873e-13 0 0)
(-1.44414e-13 0 0)
)
;

boundaryField
{
    sides
    {
        type            zeroGradient;
    }
    empty
    {
        type            empty;
    }
}


// ************************************************************************* //
